   8   8   0   0
  0.2044415E+02  0.5468728E-09  0.5468728E-09  0.5468728E-09  0.5000000E-15
   1.0000000000000000E-004
  CAR 
 unknown system                          
     11.26904485     -8.19797040  301      6.23421897      1.00000000
     -8.198  0.0000E+00  0.0000E+00
     -8.133  0.0000E+00  0.0000E+00
     -8.068  0.0000E+00  0.0000E+00
     -8.003  0.0000E+00  0.0000E+00
     -7.938  0.0000E+00  0.0000E+00
     -7.874  0.0000E+00  0.0000E+00
     -7.809  0.0000E+00  0.0000E+00
     -7.744  0.0000E+00  0.0000E+00
     -7.679  0.0000E+00  0.0000E+00
     -7.614  0.0000E+00  0.0000E+00
     -7.549  0.0000E+00  0.0000E+00
     -7.484  0.0000E+00  0.0000E+00
     -7.419  0.0000E+00  0.0000E+00
     -7.354  0.0000E+00  0.0000E+00
     -7.290  0.0000E+00  0.0000E+00
     -7.225  0.0000E+00  0.0000E+00
     -7.160  0.0000E+00  0.0000E+00
     -7.095  0.0000E+00  0.0000E+00
     -7.030  0.0000E+00  0.0000E+00
     -6.965  0.0000E+00  0.0000E+00
     -6.900  0.0000E+00  0.0000E+00
     -6.835  0.0000E+00  0.0000E+00
     -6.770  0.0000E+00  0.0000E+00
     -6.705  0.0000E+00  0.0000E+00
     -6.641  0.0000E+00  0.0000E+00
     -6.576  0.0000E+00  0.0000E+00
     -6.511  0.0000E+00  0.0000E+00
     -6.446  0.0000E+00  0.0000E+00
     -6.381  0.0000E+00  0.0000E+00
     -6.316  0.0000E+00  0.0000E+00
     -6.251  0.0000E+00  0.0000E+00
     -6.186  0.1715E-04  0.6625E-07
     -6.121  0.7464E-03  0.1903E-04
     -6.057  0.2550E-02  0.1202E-03
     -5.992  0.5152E-02  0.3702E-03
     -5.927  0.6923E-02  0.7679E-03
     -5.862  0.7600E-02  0.1245E-02
     -5.797  0.7771E-02  0.1742E-02
     -5.732  0.8333E-02  0.2262E-02
     -5.667  0.9274E-02  0.2832E-02
     -5.602  0.1034E-01  0.3468E-02
     -5.537  0.1145E-01  0.4175E-02
     -5.473  0.1547E-01  0.5018E-02
     -5.408  0.2004E-01  0.6176E-02
     -5.343  0.2264E-01  0.7590E-02
     -5.278  0.1952E-01  0.8955E-02
     -5.213  0.1688E-01  0.1013E-01
     -5.148  0.1619E-01  0.1119E-01
     -5.083  0.1598E-01  0.1224E-01
     -5.018  0.1565E-01  0.1326E-01
     -4.953  0.1522E-01  0.1427E-01
     -4.889  0.1466E-01  0.1524E-01
     -4.824  0.1810E-01  0.1645E-01
     -4.759  0.1409E-01  0.1749E-01
     -4.694  0.7943E-02  0.1814E-01
     -4.629  0.1126E-01  0.1872E-01
     -4.564  0.1692E-01  0.1963E-01
     -4.499  0.2140E-01  0.2091E-01
     -4.434  0.2218E-01  0.2233E-01
     -4.369  0.2278E-01  0.2379E-01
     -4.305  0.2439E-01  0.2534E-01
     -4.240  0.2350E-01  0.2682E-01
     -4.175  0.2484E-01  0.2839E-01
     -4.110  0.2594E-01  0.3004E-01
     -4.045  0.4581E-01  0.3304E-01
     -3.980  0.4060E-01  0.3586E-01
     -3.915  0.3499E-01  0.3831E-01
     -3.850  0.2907E-01  0.4076E-01
     -3.785  0.2266E-01  0.4220E-01
     -3.721  0.2381E-01  0.4371E-01
     -3.656  0.2512E-01  0.4529E-01
     -3.591  0.2660E-01  0.4697E-01
     -3.526  0.4025E-01  0.4885E-01
     -3.461  0.3997E-01  0.5191E-01
     -3.396  0.3780E-01  0.5445E-01
     -3.331  0.3790E-01  0.5689E-01
     -3.266  0.3848E-01  0.5937E-01
     -3.201  0.3752E-01  0.6185E-01
     -3.137  0.3419E-01  0.6419E-01
     -3.072  0.2124E-01  0.6591E-01
     -3.007  0.2041E-01  0.6726E-01
     -2.942  0.1961E-01  0.6856E-01
     -2.877  0.1883E-01  0.6981E-01
     -2.812  0.1807E-01  0.7100E-01
     -2.747  0.1733E-01  0.7215E-01
     -2.682  0.1578E-01  0.7324E-01
     -2.617  0.1463E-01  0.7422E-01
     -2.553  0.1357E-01  0.7514E-01
     -2.488  0.1262E-01  0.7599E-01
     -2.423  0.1177E-01  0.7678E-01
     -2.358  0.1102E-01  0.7751E-01
     -2.293  0.1037E-01  0.7821E-01
     -2.228  0.9425E-02  0.7885E-01
     -2.163  0.8172E-02  0.7943E-01
     -2.098  0.6082E-02  0.7990E-01
     -2.033  0.4308E-02  0.8021E-01
     -1.969  0.5375E-02  0.8051E-01
     -1.904  0.7151E-02  0.8092E-01
     -1.839  0.8591E-02  0.8143E-01
     -1.774  0.9697E-02  0.8203E-01
     -1.709  0.1072E-01  0.8269E-01
     -1.644  0.1185E-01  0.8342E-01
     -1.579  0.1308E-01  0.8423E-01
     -1.514  0.1439E-01  0.8512E-01
     -1.449  0.1578E-01  0.8610E-01
     -1.385  0.1726E-01  0.8717E-01
     -1.320  0.2073E-01  0.8837E-01
     -1.255  0.2250E-01  0.8977E-01
     -1.190  0.2461E-01  0.9130E-01
     -1.125  0.2709E-01  0.9297E-01
     -1.060  0.7772E-01  0.9663E-01
     -0.995  0.6056E-01  0.1018E+00
     -0.930  0.5316E-01  0.1051E+00
     -0.865  0.4608E-01  0.1084E+00
     -0.801  0.4067E-01  0.1112E+00
     -0.736  0.3544E-01  0.1137E+00
     -0.671  0.3153E-01  0.1159E+00
     -0.606  0.2748E-01  0.1178E+00
     -0.541  0.3105E-01  0.1199E+00
     -0.476  0.2338E-01  0.1214E+00
     -0.411  0.2007E-01  0.1228E+00
     -0.346  0.1991E-01  0.1241E+00
     -0.281  0.1975E-01  0.1254E+00
     -0.216  0.1960E-01  0.1267E+00
     -0.152  0.1945E-01  0.1279E+00
     -0.087  0.1930E-01  0.1292E+00
     -0.022  0.1916E-01  0.1304E+00
      0.043  0.1902E-01  0.1317E+00
      0.108  0.1888E-01  0.1329E+00
      0.173  0.1548E-01  0.1340E+00
      0.238  0.1533E-01  0.1350E+00
      0.303  0.1514E-01  0.1360E+00
      0.368  0.1490E-01  0.1369E+00
      0.432  0.1474E-01  0.1379E+00
      0.497  0.1449E-01  0.1388E+00
      0.562  0.1422E-01  0.1398E+00
      0.627  0.1394E-01  0.1407E+00
      0.692  0.1365E-01  0.1416E+00
      0.757  0.1333E-01  0.1425E+00
      0.822  0.1301E-01  0.1433E+00
      0.887  0.1346E-01  0.1442E+00
      0.952  0.1280E-01  0.1450E+00
      1.016  0.1226E-01  0.1458E+00
      1.081  0.1183E-01  0.1466E+00
      1.146  0.1151E-01  0.1474E+00
      1.211  0.1072E-01  0.1481E+00
      1.276  0.1301E-01  0.1488E+00
      1.341  0.1595E-01  0.1498E+00
      1.406  0.2959E-01  0.1513E+00
      1.471  0.1960E-01  0.1527E+00
      1.536  0.2061E-01  0.1540E+00
      1.600  0.2259E-01  0.1554E+00
      1.665  0.2518E-01  0.1569E+00
      1.730  0.3943E-01  0.1587E+00
      1.795  0.4106E-01  0.1613E+00
      1.860  0.4612E-01  0.1641E+00
      1.925  0.4744E-01  0.1671E+00
      1.990  0.5337E-01  0.1704E+00
      2.055  0.5920E-01  0.1741E+00
      2.120  0.5940E-01  0.1780E+00
      2.184  0.5873E-01  0.1818E+00
      2.249  0.5491E-01  0.1856E+00
      2.314  0.4581E-01  0.1887E+00
      2.379  0.4284E-01  0.1916E+00
      2.444  0.6533E-01  0.1945E+00
      2.509  0.3567E-01  0.1974E+00
      2.574  0.3653E-01  0.1997E+00
      2.639  0.3834E-01  0.2021E+00
      2.704  0.4790E-01  0.2048E+00
      2.768  0.5681E-01  0.2082E+00
      2.833  0.6288E-01  0.2118E+00
      2.898  0.8097E-01  0.2167E+00
      2.963  0.6611E-01  0.2215E+00
      3.028  0.7819E-01  0.2264E+00
      3.093  0.7371E-01  0.2314E+00
      3.158  0.6234E-01  0.2358E+00
      3.223  0.4650E-01  0.2394E+00
      3.288  0.3861E-01  0.2421E+00
      3.352  0.3492E-01  0.2445E+00
      3.417  0.3452E-01  0.2467E+00
      3.482  0.4318E-01  0.2491E+00
      3.547  0.5584E-01  0.2524E+00
      3.612  0.7053E-01  0.2568E+00
      3.677  0.6458E-01  0.2613E+00
      3.742  0.5835E-01  0.2651E+00
      3.807  0.5915E-01  0.2689E+00
      3.872  0.8788E-01  0.2732E+00
      3.936  0.7380E-01  0.2784E+00
      4.001  0.5207E-01  0.2822E+00
      4.066  0.4643E-01  0.2854E+00
      4.131  0.4074E-01  0.2882E+00
      4.196  0.3514E-01  0.2907E+00
      4.261  0.3122E-01  0.2928E+00
      4.326  0.2178E-01  0.2943E+00
      4.391  0.2530E-01  0.2957E+00
      4.456  0.3293E-01  0.2976E+00
      4.520  0.4854E-01  0.3004E+00
      4.585  0.4985E-01  0.3034E+00
      4.650  0.5472E-01  0.3068E+00
      4.715  0.5434E-01  0.3102E+00
      4.780  0.3507E-01  0.3133E+00
      4.845  0.1583E-01  0.3145E+00
      4.910  0.1364E-01  0.3154E+00
      4.975  0.1160E-01  0.3163E+00
      5.040  0.9700E-02  0.3170E+00
      5.104  0.9639E-02  0.3176E+00
      5.169  0.9468E-02  0.3182E+00
      5.234  0.8607E-02  0.3188E+00
      5.299  0.7058E-02  0.3193E+00
      5.364  0.4819E-02  0.3197E+00
      5.429  0.1892E-02  0.3199E+00
      5.494  0.6145E-03  0.3200E+00
      5.559  0.1371E-03  0.3200E+00
      5.624  0.0000E+00  0.3200E+00
      5.689  0.0000E+00  0.3200E+00
      5.753  0.0000E+00  0.3200E+00
      5.818  0.0000E+00  0.3200E+00
      5.883  0.0000E+00  0.3200E+00
      5.948  0.0000E+00  0.3200E+00
      6.013  0.0000E+00  0.3200E+00
      6.078  0.0000E+00  0.3200E+00
      6.143  0.0000E+00  0.3200E+00
      6.208  0.0000E+00  0.3200E+00
      6.273  0.1426E-02  0.3200E+00
      6.337  0.3089E-02  0.3202E+00
      6.402  0.3947E-02  0.3204E+00
      6.467  0.4898E-02  0.3207E+00
      6.532  0.6131E-02  0.3211E+00
      6.597  0.7349E-02  0.3215E+00
      6.662  0.8329E-02  0.3220E+00
      6.727  0.9022E-02  0.3226E+00
      6.792  0.1004E-01  0.3232E+00
      6.857  0.1149E-01  0.3239E+00
      6.921  0.1429E-01  0.3247E+00
      6.986  0.2162E-01  0.3258E+00
      7.051  0.2792E-01  0.3275E+00
      7.116  0.2747E-01  0.3293E+00
      7.181  0.3657E-01  0.3315E+00
      7.246  0.3267E-01  0.3336E+00
      7.311  0.3640E-01  0.3358E+00
      7.376  0.4004E-01  0.3383E+00
      7.441  0.7034E-01  0.3423E+00
      7.505  0.5749E-01  0.3462E+00
      7.570  0.5618E-01  0.3500E+00
      7.635  0.4595E-01  0.3533E+00
      7.700  0.2643E-01  0.3557E+00
      7.765  0.4584E-01  0.3583E+00
      7.830  0.5264E-01  0.3613E+00
      7.895  0.6524E-01  0.3651E+00
      7.960  0.7970E-01  0.3698E+00
      8.025  0.8496E-01  0.3762E+00
      8.089  0.5378E-01  0.3799E+00
      8.154  0.5199E-01  0.3833E+00
      8.219  0.4960E-01  0.3866E+00
      8.284  0.4659E-01  0.3898E+00
      8.349  0.3633E-01  0.3926E+00
      8.414  0.3367E-01  0.3949E+00
      8.479  0.2940E-01  0.3970E+00
      8.544  0.2809E-01  0.3988E+00
      8.609  0.2674E-01  0.4006E+00
      8.673  0.2536E-01  0.4023E+00
      8.738  0.1928E-01  0.4038E+00
      8.803  0.1001E-01  0.4047E+00
      8.868  0.9291E-02  0.4054E+00
      8.933  0.1102E+00  0.4091E+00
      8.998  0.5531E-01  0.4132E+00
      9.063  0.6295E-01  0.4168E+00
      9.128  0.1764E-01  0.4187E+00
      9.193  0.9607E-02  0.4196E+00
      9.257  0.3477E-02  0.4200E+00
      9.322  0.0000E+00  0.4200E+00
      9.387  0.0000E+00  0.4200E+00
      9.452  0.0000E+00  0.4200E+00
      9.517  0.0000E+00  0.4200E+00
      9.582  0.0000E+00  0.4200E+00
      9.647  0.0000E+00  0.4200E+00
      9.712  0.0000E+00  0.4200E+00
      9.777  0.0000E+00  0.4200E+00
      9.841  0.0000E+00  0.4200E+00
      9.906  0.0000E+00  0.4200E+00
      9.971  0.0000E+00  0.4200E+00
     10.036  0.0000E+00  0.4200E+00
     10.101  0.0000E+00  0.4200E+00
     10.166  0.0000E+00  0.4200E+00
     10.231  0.0000E+00  0.4200E+00
     10.296  0.0000E+00  0.4200E+00
     10.361  0.0000E+00  0.4200E+00
     10.425  0.0000E+00  0.4200E+00
     10.490  0.0000E+00  0.4200E+00
     10.555  0.0000E+00  0.4200E+00
     10.620  0.0000E+00  0.4200E+00
     10.685  0.0000E+00  0.4200E+00
     10.750  0.0000E+00  0.4200E+00
     10.815  0.0000E+00  0.4200E+00
     10.880  0.0000E+00  0.4200E+00
     10.945  0.0000E+00  0.4200E+00
     11.009  0.0000E+00  0.4200E+00
     11.074  0.0000E+00  0.4200E+00
     11.139  0.0000E+00  0.4200E+00
     11.204  0.0000E+00  0.4200E+00
     11.269  0.0000E+00  0.4200E+00
