Automatically generated mesh
      10
Reciprocal lattice
    0.00000000000000    0.00000000000000    0.00000000000000             1
    0.20000000000000    0.00000000000000    0.00000000000000             6
    0.40000000000000    0.00000000000000    0.00000000000000             6
    0.20000000000000    0.20000000000000    0.00000000000000            12
    0.40000000000000    0.20000000000000    0.00000000000000            24
    0.40000000000000    0.40000000000000    0.00000000000000            12
    0.20000000000000    0.20000000000000    0.20000000000000             8
    0.40000000000000    0.20000000000000    0.20000000000000            24
    0.40000000000000    0.40000000000000    0.20000000000000            24
    0.40000000000000    0.40000000000000    0.40000000000000             8
Tetrahedra
        57    0.00133333333333
        12         1         2         2         4
        12         2         2         4         4
        12         2         4         4         7
        12         2         3         4         5
        12         2         4         4         5
        12         4         4         5         7
        12         3         4         5         5
        24         4         5         5         8
        24         4         5         7         8
         6         3         3         5         5
        12         3         5         5         5
        12         5         5         5         8
         6         5         5         8         8
        12         4         5         6         7
        12         5         6         7         8
        12         6         7         8         9
        24         5         5         6         8
        12         5         6         6         8
        12         6         6         8         9
        12         5         6         8         8
        12         6         8         8         9
        12         6         8         9         9
        12         5         6         8         9
        12         5         7         8         8
        24         5         8         8         9
        12         2         3         4         7
        12         3         4         5         7
        12         3         5         7         8
        12         6         6         6         9
        12         6         6         9         9
        12         6         9         9         9
        12         5         5         6         9
        12         5         6         6         9
        12         5         6         9         9
        12         5         5         8         9
        12         5         8         9         9
        12         3         3         5         8
        12         3         5         5         8
        12         3         5         8         8
        12         4         5         6         9
        12         4         5         8         9
        12         4         7         8         9
        12         2         3         5         8
        12         2         4         5         8
        12         2         4         7         8
        12         1         2         4         7
        12         7         8         8         9
        18         8         8         9         9
        24         8         9         9        10
        12         8         9         9         9
        24         9         9         9        10
        18         9         9        10        10
        12         9        10        10        10
        12         8         8         9        10
        12         8         9        10        10
        12         7         8         9        10
         6        10        10        10        10
