 running on    1 total cores
 distrk:  each k-point on    1 cores,    1 groups
 distr:  one band on    1 cores,    1 groups
 OpenACC runtime initialized ...    1 GPUs detected
 vasp.6.2.0 18Jan21 (build Feb 25 2021 07:51:20) complex                         
 POSCAR found type information on POSCAR Si
 POSCAR found :  1 types and       8 ions
 scaLAPACK will be used selectively (only on CPU)
 LDA part: xc-table for Pade appr. of Perdew
 POSCAR, INCAR and KPOINTS ok, starting setup
 FFT: planning ...
 WAVECAR not read
 entering main loop
       N       E                     dE             d eps       ncg     rms          rms(c)
DAV:   1     0.820707636755E+02    0.82071E+02   -0.12145E+04   420   0.122E+03
DAV:   2    -0.372614150173E+02   -0.11933E+03   -0.11351E+03   523   0.175E+02
DAV:   3    -0.439179721700E+02   -0.66566E+01   -0.65388E+01   555   0.372E+01
DAV:   4    -0.440633241343E+02   -0.14535E+00   -0.14488E+00   495   0.652E+00
DAV:   5    -0.440688373325E+02   -0.55132E-02   -0.55112E-02   548   0.108E+00    0.951E+00
RMM:   6    -0.436028340118E+02    0.46600E+00   -0.23728E-01   420   0.214E+00    0.578E+00
RMM:   7    -0.433858097663E+02    0.21702E+00   -0.62539E-01   432   0.360E+00    0.321E-01
RMM:   8    -0.433936944324E+02   -0.78847E-02   -0.57539E-02   426   0.127E+00    0.163E-01
RMM:   9    -0.433953836214E+02   -0.16892E-02   -0.15384E-02   433   0.601E-01    0.173E-01
RMM:  10    -0.433956422952E+02   -0.25867E-03   -0.22241E-03   421   0.285E-01    0.129E-01
RMM:  11    -0.433957898436E+02   -0.14755E-03   -0.10701E-03   383   0.198E-01    0.121E-01
RMM:  12    -0.433958128162E+02   -0.22973E-04   -0.21434E-04   261   0.996E-02
   1 F= -.43395813E+02 E0= -.43395813E+02  d E =-.433958E+02
 curvature:   0.00 expect dE= 0.000E+00 dE for cont linesearch  0.000E+00
 trial: gam= 0.00000 g(F)=  0.129E-59 g(S)=  0.280E-05 ort = 0.000E+00 (trialstep = 0.100E+01)
 search vector abs. value=  0.280E-05
 reached required accuracy - stopping structural energy minimisation
