<?xml version="1.0" encoding="ISO-8859-1"?>
<modeling>
 <generator>
  <i name="program" type="string">vasp </i>
  <i name="version" type="string">6.2.0  </i>
  <i name="subversion" type="string">18Jan21 (build Feb 25 2021 07:51:20) complex                          parallel </i>
  <i name="platform" type="string">LinuxPGI </i>
  <i name="date" type="string">2021 05 17 </i>
  <i name="time" type="string">14:54:49 </i>
 </generator>
 <incar>
  <i type="string" name="PREC">Normal</i>
  <i type="string" name="ALGO">Fast</i>
  <i type="int" name="IBRION">     2</i>
  <i name="EDIFF">      0.00010000</i>
  <i type="int" name="NSW">   100</i>
  <i type="int" name="ISIF">     3</i>
  <i name="ENCUT">    500.00000000</i>
  <i type="int" name="ISMEAR">    -5</i>
  <i name="SIGMA">      0.20000000</i>
  <i type="logical" name="LWAVE"> F  </i>
  <i type="logical" name="LCHARG"> F  </i>
 </incar>
 <primitive_cell>
  <structure name="primitive_cell" >
   <crystal>
    <varray name="basis" >
     <v>       2.73436400      -2.73436400       0.00000000 </v>
     <v>       2.73436400       0.00000000       2.73436400 </v>
     <v>       0.00000000      -2.73436400       2.73436400 </v>
    </varray>
    <i name="volume">     40.88829285 </i>
    <varray name="rec_basis" >
     <v>       0.18285788      -0.18285788      -0.18285788 </v>
     <v>       0.18285788       0.18285788       0.18285788 </v>
     <v>      -0.18285788      -0.18285788       0.18285788 </v>
    </varray>
   </crystal>
   <varray name="positions" >
    <v>       0.25000000       0.25000000       0.25000000 </v>
    <v>       0.50000000       0.50000000       0.50000000 </v>
   </varray>
  </structure>
  <varray name="primitive_index" >
   <v type="int" >        1 </v>
   <v type="int" >        2 </v>
  </varray>
 </primitive_cell>
 <kpoints>
  <generation param="Auto">
   <i name="subdivisionlength">     30.00000000 </i>
   <v type="int" name="divisions">       5        5        5 </v>
   <v name="usershift">      0.00000000       0.00000000       0.00000000 </v>
   <v name="genvec1">      0.20000000       0.00000000       0.00000000 </v>
   <v name="genvec2">      0.00000000       0.20000000       0.00000000 </v>
   <v name="genvec3">      0.00000000       0.00000000       0.20000000 </v>
   <v name="shift">      0.00000000       0.00000000       0.00000000 </v>
  </generation>
  <varray name="kpointlist" >
   <v>       0.00000000       0.00000000       0.00000000 </v>
   <v>       0.20000000       0.00000000       0.00000000 </v>
   <v>       0.40000000       0.00000000       0.00000000 </v>
   <v>       0.20000000       0.20000000       0.00000000 </v>
   <v>       0.40000000       0.20000000       0.00000000 </v>
   <v>       0.40000000       0.40000000       0.00000000 </v>
   <v>       0.20000000       0.20000000       0.20000000 </v>
   <v>       0.40000000       0.20000000       0.20000000 </v>
   <v>       0.40000000       0.40000000       0.20000000 </v>
   <v>       0.40000000       0.40000000       0.40000000 </v>
  </varray>
  <varray name="weights" >
   <v>       0.00800000 </v>
   <v>       0.04800000 </v>
   <v>       0.04800000 </v>
   <v>       0.09600000 </v>
   <v>       0.19200000 </v>
   <v>       0.09600000 </v>
   <v>       0.06400000 </v>
   <v>       0.19200000 </v>
   <v>       0.19200000 </v>
   <v>       0.06400000 </v>
  </varray>
  <varray name="tetrahedronlist"  type="int" >
   <v type="int" >       12        1        2        2        4 </v>
   <v type="int" >       12        2        2        4        4 </v>
   <v type="int" >       12        2        4        4        7 </v>
   <v type="int" >       12        2        3        4        5 </v>
   <v type="int" >       12        2        4        4        5 </v>
   <v type="int" >       12        4        4        5        7 </v>
   <v type="int" >       12        3        4        5        5 </v>
   <v type="int" >       24        4        5        5        8 </v>
   <v type="int" >       24        4        5        7        8 </v>
   <v type="int" >        6        3        3        5        5 </v>
   <v type="int" >       12        3        5        5        5 </v>
   <v type="int" >       12        5        5        5        8 </v>
   <v type="int" >        6        5        5        8        8 </v>
   <v type="int" >       12        4        5        6        7 </v>
   <v type="int" >       12        5        6        7        8 </v>
   <v type="int" >       12        6        7        8        9 </v>
   <v type="int" >       24        5        5        6        8 </v>
   <v type="int" >       12        5        6        6        8 </v>
   <v type="int" >       12        6        6        8        9 </v>
   <v type="int" >       12        5        6        8        8 </v>
   <v type="int" >       12        6        8        8        9 </v>
   <v type="int" >       12        6        8        9        9 </v>
   <v type="int" >       12        5        6        8        9 </v>
   <v type="int" >       12        5        7        8        8 </v>
   <v type="int" >       24        5        8        8        9 </v>
   <v type="int" >       12        2        3        4        7 </v>
   <v type="int" >       12        3        4        5        7 </v>
   <v type="int" >       12        3        5        7        8 </v>
   <v type="int" >       12        6        6        6        9 </v>
   <v type="int" >       12        6        6        9        9 </v>
   <v type="int" >       12        6        9        9        9 </v>
   <v type="int" >       12        5        5        6        9 </v>
   <v type="int" >       12        5        6        6        9 </v>
   <v type="int" >       12        5        6        9        9 </v>
   <v type="int" >       12        5        5        8        9 </v>
   <v type="int" >       12        5        8        9        9 </v>
   <v type="int" >       12        3        3        5        8 </v>
   <v type="int" >       12        3        5        5        8 </v>
   <v type="int" >       12        3        5        8        8 </v>
   <v type="int" >       12        4        5        6        9 </v>
   <v type="int" >       12        4        5        8        9 </v>
   <v type="int" >       12        4        7        8        9 </v>
   <v type="int" >       12        2        3        5        8 </v>
   <v type="int" >       12        2        4        5        8 </v>
   <v type="int" >       12        2        4        7        8 </v>
   <v type="int" >       12        1        2        4        7 </v>
   <v type="int" >       12        7        8        8        9 </v>
   <v type="int" >       18        8        8        9        9 </v>
   <v type="int" >       24        8        9        9       10 </v>
   <v type="int" >       12        8        9        9        9 </v>
   <v type="int" >       24        9        9        9       10 </v>
   <v type="int" >       18        9        9       10       10 </v>
   <v type="int" >       12        9       10       10       10 </v>
   <v type="int" >       12        8        8        9       10 </v>
   <v type="int" >       12        8        9       10       10 </v>
   <v type="int" >       12        7        8        9       10 </v>
   <v type="int" >        6       10       10       10       10 </v>
  </varray>
  <i name="volumeweight">      0.00133333 </i>
 </kpoints>
 <parameters>
  <separator name="general" >
   <i type="string" name="SYSTEM">unknown system</i>
   <i type="logical" name="LCOMPAT"> F  </i>
  </separator>
  <separator name="electronic" >
   <i type="string" name="PREC">normal</i>
   <i name="ENMAX">    500.00000000</i>
   <i name="ENAUG">    322.06900000</i>
   <i name="EDIFF">      0.00010000</i>
   <i type="int" name="IALGO">    68</i>
   <i type="int" name="IWAVPR">    11</i>
   <i type="int" name="NBANDS">    21</i>
   <i type="int" name="NBANDSLOW">    -1</i>
   <i type="int" name="NBANDSHIGH">    -1</i>
   <i name="NELECT">     32.00000000</i>
   <i type="int" name="TURBO">     0</i>
   <i type="int" name="IRESTART">     0</i>
   <i type="int" name="NREBOOT">     0</i>
   <i type="int" name="NMIN">     0</i>
   <i name="EREF">      0.00000000</i>
   <separator name="electronic smearing" >
    <i type="int" name="ISMEAR">    -5</i>
    <i name="SIGMA">      0.20000000</i>
    <i name="KSPACING">      0.50000000</i>
    <i type="logical" name="KGAMMA"> T  </i>
    <i type="logical" name="KBLOWUP"> T  </i>
   </separator>
   <separator name="electronic projectors" >
    <i type="logical" name="LREAL"> F  </i>
    <v name="ROPT">      0.00000000</v>
    <i type="int" name="LMAXPAW">  -100</i>
    <i type="int" name="LMAXMIX">     2</i>
    <i type="logical" name="NLSPLINE"> F  </i>
   </separator>
   <separator name="electronic startup" >
    <i type="int" name="ISTART">     0</i>
    <i type="int" name="ICHARG">     2</i>
    <i type="int" name="INIWAV">     1</i>
   </separator>
   <separator name="electronic spin" >
    <i type="int" name="ISPIN">     1</i>
    <i type="logical" name="LNONCOLLINEAR"> F  </i>
    <v name="MAGMOM">      1.00000000      1.00000000      1.00000000      1.00000000      1.00000000      1.00000000      1.00000000      1.00000000</v>
    <i name="NUPDOWN">     -1.00000000</i>
    <i type="logical" name="LSORBIT"> F  </i>
    <v name="SAXIS">      0.00000000      0.00000000      1.00000000</v>
    <i type="logical" name="LSPIRAL"> F  </i>
    <v name="QSPIRAL">      0.00000000      0.00000000      0.00000000</v>
    <i type="logical" name="LZEROZ"> F  </i>
   </separator>
   <separator name="electronic exchange-correlation" >
    <i type="logical" name="LASPH"> F  </i>
    <i type="logical" name="LMETAGGA"> F  </i>
   </separator>
   <separator name="electronic convergence" >
    <i type="int" name="NELM">    60</i>
    <i type="int" name="NELMDL">    -5</i>
    <i type="int" name="NELMIN">     2</i>
    <i name="ENINI">    500.00000000</i>
    <separator name="electronic convergence detail" >
     <i type="logical" name="LDIAG"> T  </i>
     <i type="logical" name="LSUBROT"> F  </i>
     <i name="WEIMIN">      0.00100000</i>
     <i name="EBREAK">      0.00000119</i>
     <i name="DEPER">      0.30000000</i>
     <i type="int" name="NRMM">     4</i>
     <i name="TIME">      0.40000000</i>
    </separator>
   </separator>
   <separator name="electronic mixer" >
    <i name="AMIX">      0.40000000</i>
    <i name="BMIX">      1.00000000</i>
    <i name="AMIN">      0.10000000</i>
    <i name="AMIX_MAG">      1.60000000</i>
    <i name="BMIX_MAG">      1.00000000</i>
    <separator name="electronic mixer details" >
     <i type="int" name="IMIX">     4</i>
     <i type="logical" name="MIXFIRST"> F  </i>
     <i type="int" name="MAXMIX">   -45</i>
     <i name="WC">    100.00000000</i>
     <i type="int" name="INIMIX">     1</i>
     <i type="int" name="MIXPRE">     1</i>
     <i type="int" name="MREMOVE">     5</i>
    </separator>
   </separator>
   <separator name="electronic dipolcorrection" >
    <i type="logical" name="LDIPOL"> F  </i>
    <i type="logical" name="LMONO"> F  </i>
    <i type="int" name="IDIPOL">     0</i>
    <i name="EPSILON">      1.00000000</i>
    <v name="DIPOL">   -100.00000000   -100.00000000   -100.00000000</v>
    <i name="EFIELD">      0.00000000</i>
   </separator>
  </separator>
  <separator name="grids" >
   <i type="int" name="NGX">    30</i>
   <i type="int" name="NGY">    30</i>
   <i type="int" name="NGZ">    30</i>
   <i type="int" name="NGXF">    60</i>
   <i type="int" name="NGYF">    60</i>
   <i type="int" name="NGZF">    60</i>
   <i type="logical" name="ADDGRID"> F  </i>
  </separator>
  <separator name="ionic" >
   <i type="int" name="NSW">   100</i>
   <i type="int" name="IBRION">     2</i>
   <i type="int" name="MDALGO">     0</i>
   <i type="int" name="ISIF">     3</i>
   <i name="PSTRESS">      0.00000000</i>
   <i name="EDIFFG">      0.00100000</i>
   <i type="int" name="NFREE">     1</i>
   <i name="POTIM">      0.50000000</i>
   <i name="SMASS">     -3.00000000</i>
   <i name="SCALEE">      1.00000000</i>
  </separator>
  <separator name="ionic md" >
   <i name="TEBEG">      0.00010000</i>
   <i name="TEEND">      0.00010000</i>
   <i type="int" name="NBLOCK">     1</i>
   <i type="int" name="KBLOCK">   100</i>
   <i type="int" name="NPACO">   256</i>
   <i name="APACO">     16.00000000</i>
  </separator>
  <separator name="symmetry" >
   <i type="int" name="ISYM">     2</i>
   <i name="SYMPREC">      0.00001000</i>
  </separator>
  <separator name="dos" >
   <i type="int" name="LORBIT">     0</i>
   <v name="RWIGS">     -1.00000000</v>
   <i type="int" name="NEDOS">   301</i>
   <i name="EMIN">     10.00000000</i>
   <i name="EMAX">    -10.00000000</i>
   <i name="EFERMI">      0.00000000</i>
  </separator>
  <separator name="writing" >
   <i type="int" name="NWRITE">     2</i>
   <i type="logical" name="LWAVE"> F  </i>
   <i type="logical" name="LDOWNSAMPLE"> F  </i>
   <i type="logical" name="LCHARG"> F  </i>
   <i type="logical" name="LPARD"> F  </i>
   <i type="logical" name="LVTOT"> F  </i>
   <i type="logical" name="LVHAR"> F  </i>
   <i type="logical" name="LELF"> F  </i>
   <i type="logical" name="LOPTICS"> F  </i>
   <v name="STM">      0.00000000      0.00000000      0.00000000      0.00000000      0.00000000      0.00000000      0.00000000</v>
  </separator>
  <separator name="performance" >
   <i type="int" name="NPAR">     1</i>
   <i type="int" name="NSIM">     4</i>
   <i type="int" name="NBLK">    -1</i>
   <i type="logical" name="LPLANE"> T  </i>
   <i type="logical" name="LSCALAPACK"> T  </i>
   <i type="logical" name="LSCAAWARE"> F  </i>
   <i type="logical" name="LSCALU"> F  </i>
   <i type="logical" name="LASYNC"> F  </i>
   <i type="logical" name="LORBITALREAL"> F  </i>
  </separator>
  <separator name="miscellaneous" >
   <i type="int" name="IDIOT">     3</i>
   <i type="int" name="PHON_NSTRUCT">    -1</i>
   <i type="logical" name="LMUSIC"> F  </i>
   <v name="POMASS">     28.08500000</v>
   <v name="DARWINR">      0.00000000</v>
   <v name="DARWINV">      1.00000000</v>
   <i type="logical" name="LCORR"> T  </i>
  </separator>
  <i type="logical" name="GGA_COMPAT"> T  </i>
  <i type="logical" name="LBERRY"> F  </i>
  <i type="int" name="ICORELEVEL">     0</i>
  <i type="logical" name="LDAU"> F  </i>
  <i type="int" name="I_CONSTRAINED_M">     0</i>
  <separator name="electronic exchange-correlation" >
   <i type="string" name="GGA">--</i>
   <i type="int" name="VOSKOWN">     0</i>
   <i type="logical" name="LHFCALC"> F  </i>
   <i type="string" name="PRECFOCK"></i>
   <i type="logical" name="LSYMGRAD"> F  </i>
   <i type="logical" name="LHFONE"> F  </i>
   <i type="logical" name="LRHFCALC"> F  </i>
   <i type="logical" name="LTHOMAS"> F  </i>
   <i type="logical" name="LMODELHF"> F  </i>
   <i type="logical" name="LFOCKACE"> F  </i>
   <i name="ENCUT4O">     -1.00000000</i>
   <i type="int" name="EXXOEP">     0</i>
   <i type="int" name="FOURORBIT">     0</i>
   <i name="AEXX">      0.00000000</i>
   <i name="HFALPHA">      0.00000000</i>
   <i name="MCALPHA">      0.00000000</i>
   <i name="ALDAX">      1.00000000</i>
   <i name="AGGAX">      1.00000000</i>
   <i name="ALDAC">      1.00000000</i>
   <i name="AGGAC">      1.00000000</i>
   <i type="int" name="NKREDX">     1</i>
   <i type="int" name="NKREDY">     1</i>
   <i type="int" name="NKREDZ">     1</i>
   <i type="logical" name="SHIFTRED"> F  </i>
   <i type="logical" name="ODDONLY"> F  </i>
   <i type="logical" name="EVENONLY"> F  </i>
   <i type="int" name="LMAXFOCK">     0</i>
   <i type="int" name="NMAXFOCKAE">     0</i>
   <i type="logical" name="LFOCKAEDFT"> F  </i>
   <i name="HFSCREEN">      0.00000000</i>
   <i name="HFSCREENC">      0.00000000</i>
   <i type="int" name="NBANDSGWLOW">     0</i>
  </separator>
  <separator name="vdW DFT" >
   <i type="logical" name="LUSE_VDW"> F  </i>
   <i name="Zab_VDW">     -0.84910000</i>
   <i name="PARAM1">      0.12340000</i>
   <i name="PARAM2">      1.00000000</i>
   <i name="PARAM3">      0.00000000</i>
  </separator>
  <separator name="model GW" >
   <i type="int" name="MODEL_GW">     0</i>
   <i name="MODEL_EPS0">     12.26648785</i>
   <i name="MODEL_ALPHA">      1.00000000</i>
  </separator>
  <separator name="linear response parameters" >
   <i type="logical" name="LEPSILON"> F  </i>
   <i type="logical" name="LRPA"> F  </i>
   <i type="logical" name="LNABLA"> F  </i>
   <i type="logical" name="LVEL"> F  </i>
   <i type="int" name="KINTER">     0</i>
   <i name="CSHIFT">      0.10000000</i>
   <i name="OMEGAMAX">     -1.00000000</i>
   <i name="DEG_THRESHOLD">      0.00200000</i>
   <i name="RTIME">     -0.10000000</i>
   <i name="WPLASMAI">      0.00000000</i>
   <v name="DFIELD">      0.00000000      0.00000000      0.00000000</v>
   <v name="WPLASMA">      0.00000000      0.00000000      0.00000000      0.00000000      0.00000000      0.00000000      0.00000000      0.00000000      0.00000000</v>
  </separator>
  <separator name="orbital magnetization" >
   <i type="logical" name="NUCIND"> F  </i>
   <v name="MAGPOS">      0.00000000      0.00000000      0.00000000</v>
   <i type="logical" name="LNICSALL"> T  </i>
   <i type="logical" name="ORBITALMAG"> F  </i>
   <i type="logical" name="LMAGBLOCH"> F  </i>
   <i type="logical" name="LCHIMAG"> F  </i>
   <i type="logical" name="LGAUGE"> T  </i>
   <i type="int" name="MAGATOM">     0</i>
   <v name="MAGDIPOL">      0.00000000      0.00000000      0.00000000</v>
   <v name="AVECCONST">      0.00000000      0.00000000      0.00000000</v>
  </separator>
  <separator name="response functions" >
   <i type="logical" name="LFINITE_TEMPERATURE"> F  </i>
   <i type="logical" name="LADDER"> F  </i>
   <i type="logical" name="LRPAFORCE"> F  </i>
   <i type="logical" name="LFXC"> F  </i>
   <i type="logical" name="LHARTREE"> T  </i>
   <i type="int" name="IBSE">     0</i>
   <v type="int" name="KPOINT">    -1     0     0     0</v>
   <i type="logical" name="LTCTC"> F  </i>
   <i type="logical" name="LTCTE"> F  </i>
   <i type="logical" name="LTETE"> F  </i>
   <i type="logical" name="LTRIPLET"> F  </i>
   <i type="logical" name="LFXCEPS"> F  </i>
   <i type="logical" name="LFXHEG"> F  </i>
   <i type="int" name="NATURALO">     2</i>
   <i type="logical" name="LHOLEGF"> F  </i>
   <i type="logical" name="L2ORDER"> F  </i>
   <i type="logical" name="LDMP1"> F  </i>
   <i type="logical" name="LMP2LT"> F  </i>
   <i type="logical" name="LSMP2LT"> F  </i>
   <i type="logical" name="LGWLF"> F  </i>
   <i name="ENCUTGW">     -2.00000000</i>
   <i name="ENCUTGWSOFT">     -2.00000000</i>
   <i name="ENCUTLF">     -1.00000000</i>
   <i type="logical" name="LESF_SPLINES"> F  </i>
   <i type="int" name="LMAXMP2">    -1</i>
   <i name="SCISSOR">      0.00000000</i>
   <i type="int" name="NOMEGA">     0</i>
   <i type="int" name="NOMEGAR">     0</i>
   <i type="int" name="NBANDSGW">    -1</i>
   <i type="int" name="NBANDSO">    -1</i>
   <i type="int" name="NBANDSV">    -1</i>
   <i type="int" name="NELM">     1</i>
   <i type="int" name="NELMHF">     1</i>
   <i type="int" name="DIM">     3</i>
   <i type="int" name="IESPILON">     4</i>
   <i type="int" name="ANTIRES">     0</i>
   <i name="OMEGAMAX">    -30.00000000</i>
   <i name="OMEGAMIN">    -30.00000000</i>
   <i name="OMEGATL">   -200.00000000</i>
   <i type="int" name="OMEGAGRID">     0</i>
   <i name="CSHIFT">     -0.10000000</i>
   <i type="logical" name="LSELFENERGY"> F  </i>
   <i type="logical" name="LSPECTRAL"> F  </i>
   <i type="logical" name="LSPECTRALGW"> F  </i>
   <i type="logical" name="LSINGLES"> F  </i>
   <i type="logical" name="LFERMIGW"> F  </i>
   <i type="logical" name="ODDONLYGW"> F  </i>
   <i type="logical" name="EVENONLYGW"> F  </i>
   <i type="int" name="NKREDLFX">     1</i>
   <i type="int" name="NKREDLFY">     1</i>
   <i type="int" name="NKREDLFZ">     1</i>
   <i type="int" name="MAXMEM">  2800</i>
   <i type="int" name="TELESCOPE">     0</i>
   <i type="int" name="NTAUPAR">    -1</i>
   <i type="int" name="NOMEGAPAR">    -1</i>
   <i name="DAMP_NEWTON">      0.80000001</i>
   <i name="LAMBDA">      1.00000000</i>
  </separator>
  <separator name="External order field" >
   <i name="OFIELD_KAPPA">      0.00000000</i>
   <v name="OFIELD_K">      0.00000000      0.00000000      0.00000000</v>
   <i name="OFIELD_Q6_NEAR">      0.00000000</i>
   <i name="OFIELD_Q6_FAR">      0.00000000</i>
   <i name="OFIELD_A">      0.00000000</i>
  </separator>
 </parameters>
 <atominfo>
  <atoms>       8 </atoms>
  <types>       1 </types>
  <array name="atoms" >
   <dimension dim="1">ion</dimension>
   <field type="string">element</field>
   <field type="int">atomtype</field>
   <set>
    <rc><c>Si</c><c>   1</c></rc>
    <rc><c>Si</c><c>   1</c></rc>
    <rc><c>Si</c><c>   1</c></rc>
    <rc><c>Si</c><c>   1</c></rc>
    <rc><c>Si</c><c>   1</c></rc>
    <rc><c>Si</c><c>   1</c></rc>
    <rc><c>Si</c><c>   1</c></rc>
    <rc><c>Si</c><c>   1</c></rc>
   </set>
  </array>
  <array name="atomtypes" >
   <dimension dim="1">type</dimension>
   <field type="int">atomspertype</field>
   <field type="string">element</field>
   <field>mass</field>
   <field>valence</field>
   <field type="string">pseudopotential</field>
   <set>
    <rc><c>   8</c><c>Si</c><c>     28.08500000</c><c>      4.00000000</c><c>  PAW_PBE Si 05Jan2001                  </c></rc>
   </set>
  </array>
 </atominfo>
 <structure name="initialpos" >
  <crystal>
   <varray name="basis" >
    <v>       5.46872800      -0.00000000      -0.00000000 </v>
    <v>       0.00000000       5.46872800      -0.00000000 </v>
    <v>       0.00000000       0.00000000       5.46872800 </v>
   </varray>
   <i name="volume">    163.55317139 </i>
   <varray name="rec_basis" >
    <v>       0.18285788      -0.00000000       0.00000000 </v>
    <v>       0.00000000       0.18285788      -0.00000000 </v>
    <v>       0.00000000       0.00000000       0.18285788 </v>
   </varray>
  </crystal>
  <varray name="positions" >
   <v>       0.75000000       0.25000000       0.25000000 </v>
   <v>       0.50000000       0.50000000       0.50000000 </v>
   <v>       0.00000000       0.00000000       0.50000000 </v>
   <v>       0.75000000       0.75000000       0.75000000 </v>
   <v>       0.00000000       0.50000000       0.00000000 </v>
   <v>       0.25000000       0.75000000       0.25000000 </v>
   <v>       0.25000000       0.25000000       0.75000000 </v>
   <v>       0.50000000       0.00000000       0.00000000 </v>
  </varray>
 </structure>
 <calculation>
  <scstep>
   <time name="dav">    0.41    0.42</time>
   <time name="total">    0.45    0.46</time>
   <energy>
    <i name="alphaZ">     13.17272146 </i>
    <i name="ewald">   -907.77964085 </i>
    <i name="hartreedc">    -45.29355633 </i>
    <i name="XCdc">    -74.74070843 </i>
    <i name="pawpsdc">    704.99039692 </i>
    <i name="pawaedc">   -564.24414232 </i>
    <i name="eentropy">      0.00000000 </i>
    <i name="bandstr">    131.43563947 </i>
    <i name="atom">    824.53005375 </i>
    <i name="e_fr_energy">     82.07076368 </i>
    <i name="e_wo_entrp">     82.07076368 </i>
    <i name="e_0_energy">     82.07076368 </i>
   </energy>
  </scstep>
  <scstep>
   <time name="dav">    0.43    0.44</time>
   <time name="total">    0.44    0.45</time>
   <energy>
    <i name="e_fr_energy">    -37.26141502 </i>
    <i name="e_wo_entrp">    -37.26141502 </i>
    <i name="e_0_energy">    -37.26141502 </i>
   </energy>
  </scstep>
  <scstep>
   <time name="dav">    0.46    0.47</time>
   <time name="total">    0.47    0.48</time>
   <energy>
    <i name="e_fr_energy">    -43.91797217 </i>
    <i name="e_wo_entrp">    -43.91797217 </i>
    <i name="e_0_energy">    -43.91797217 </i>
   </energy>
  </scstep>
  <scstep>
   <time name="dav">    0.40    0.41</time>
   <time name="total">    0.41    0.42</time>
   <energy>
    <i name="e_fr_energy">    -44.06332413 </i>
    <i name="e_wo_entrp">    -44.06332413 </i>
    <i name="e_0_energy">    -44.06332413 </i>
   </energy>
  </scstep>
  <scstep>
   <time name="dav">    0.45    0.46</time>
   <time name="total">    0.52    0.53</time>
   <energy>
    <i name="e_fr_energy">    -44.06883733 </i>
    <i name="e_wo_entrp">    -44.06883733 </i>
    <i name="e_0_energy">    -44.06883733 </i>
   </energy>
  </scstep>
  <scstep>
   <time name="diag">    0.06    0.06</time>
   <time name="diis">    0.29    0.30</time>
   <time name="orth">    0.01    0.01</time>
   <time name="total">    0.44    0.45</time>
   <energy>
    <i name="e_fr_energy">    -43.60283401 </i>
    <i name="e_wo_entrp">    -43.60283401 </i>
    <i name="e_0_energy">    -43.60283401 </i>
   </energy>
  </scstep>
  <scstep>
   <time name="diag">    0.06    0.06</time>
   <time name="diis">    0.30    0.31</time>
   <time name="orth">    0.01    0.01</time>
   <time name="total">    0.45    0.46</time>
   <energy>
    <i name="e_fr_energy">    -43.38580977 </i>
    <i name="e_wo_entrp">    -43.38580977 </i>
    <i name="e_0_energy">    -43.38580977 </i>
   </energy>
  </scstep>
  <scstep>
   <time name="diag">    0.06    0.06</time>
   <time name="diis">    0.30    0.31</time>
   <time name="orth">    0.01    0.01</time>
   <time name="total">    0.45    0.46</time>
   <energy>
    <i name="e_fr_energy">    -43.39369443 </i>
    <i name="e_wo_entrp">    -43.39369443 </i>
    <i name="e_0_energy">    -43.39369443 </i>
   </energy>
  </scstep>
  <scstep>
   <time name="diag">    0.06    0.06</time>
   <time name="diis">    0.31    0.31</time>
   <time name="orth">    0.01    0.01</time>
   <time name="total">    0.45    0.46</time>
   <energy>
    <i name="e_fr_energy">    -43.39538362 </i>
    <i name="e_wo_entrp">    -43.39538362 </i>
    <i name="e_0_energy">    -43.39538362 </i>
   </energy>
  </scstep>
  <scstep>
   <time name="diag">    0.06    0.06</time>
   <time name="diis">    0.29    0.30</time>
   <time name="orth">    0.01    0.01</time>
   <time name="total">    0.44    0.45</time>
   <energy>
    <i name="e_fr_energy">    -43.39564230 </i>
    <i name="e_wo_entrp">    -43.39564230 </i>
    <i name="e_0_energy">    -43.39564230 </i>
   </energy>
  </scstep>
  <scstep>
   <time name="diag">    0.06    0.06</time>
   <time name="diis">    0.26    0.27</time>
   <time name="orth">    0.01    0.01</time>
   <time name="total">    0.41    0.42</time>
   <energy>
    <i name="e_fr_energy">    -43.39578984 </i>
    <i name="e_wo_entrp">    -43.39578984 </i>
    <i name="e_0_energy">    -43.39578984 </i>
   </energy>
  </scstep>
  <scstep>
   <time name="diag">    0.06    0.06</time>
   <time name="diis">    0.17    0.18</time>
   <time name="orth">    0.01    0.01</time>
   <time name="total">    0.26    0.27</time>
   <energy>
    <i name="alphaZ">     13.17272146 </i>
    <i name="ewald">   -907.77964085 </i>
    <i name="hartreedc">    -60.71679512 </i>
    <i name="XCdc">    -72.23655654 </i>
    <i name="pawpsdc">   3337.25091948 </i>
    <i name="pawaedc">  -3197.32579244 </i>
    <i name="eentropy">      0.00000000 </i>
    <i name="bandstr">     19.70927743 </i>
    <i name="atom">    824.53005375 </i>
    <i name="e_fr_energy">    -43.39581282 </i>
    <i name="e_wo_entrp">    -43.39581282 </i>
    <i name="e_0_energy">    -43.39581282 </i>
   </energy>
  </scstep>
  <structure>
   <crystal>
    <varray name="basis" >
     <v>       5.46872800      -0.00000000      -0.00000000 </v>
     <v>       0.00000000       5.46872800      -0.00000000 </v>
     <v>       0.00000000       0.00000000       5.46872800 </v>
    </varray>
    <i name="volume">    163.55317139 </i>
    <varray name="rec_basis" >
     <v>       0.18285788      -0.00000000       0.00000000 </v>
     <v>       0.00000000       0.18285788      -0.00000000 </v>
     <v>       0.00000000       0.00000000       0.18285788 </v>
    </varray>
   </crystal>
   <varray name="positions" >
    <v>       0.75000000       0.25000000       0.25000000 </v>
    <v>       0.50000000       0.50000000       0.50000000 </v>
    <v>       0.00000000       0.00000000       0.50000000 </v>
    <v>       0.75000000       0.75000000       0.75000000 </v>
    <v>       0.00000000       0.50000000       0.00000000 </v>
    <v>       0.25000000       0.75000000       0.25000000 </v>
    <v>       0.25000000       0.25000000       0.75000000 </v>
    <v>       0.50000000       0.00000000       0.00000000 </v>
   </varray>
  </structure>
  <varray name="forces" >
   <v>       0.00000000      -0.00000000       0.00000000 </v>
   <v>      -0.00000000       0.00000000      -0.00000000 </v>
   <v>      -0.00000000       0.00000000      -0.00000000 </v>
   <v>       0.00000000      -0.00000000       0.00000000 </v>
   <v>      -0.00000000       0.00000000      -0.00000000 </v>
   <v>       0.00000000      -0.00000000      -0.00000000 </v>
   <v>       0.00000000      -0.00000000       0.00000000 </v>
   <v>      -0.00000000       0.00000000      -0.00000000 </v>
  </varray>
  <varray name="stress" >
   <v>      -0.12194622       0.00000000      -0.00000000 </v>
   <v>       0.00000000      -0.12194622      -0.00000000 </v>
   <v>       0.00000000       0.00000000      -0.12194622 </v>
  </varray>
  <energy>
   <i name="e_fr_energy">    -43.39581282 </i>
   <i name="e_wo_entrp">    -43.39581282 </i>
   <i name="e_0_energy">    -43.39581282 </i>
  </energy>
  <time name="totalsc">    5.86    5.99</time>
  <eigenvalues>
   <array>
    <dimension dim="1">band</dimension>
    <dimension dim="2">kpoint</dimension>
    <dimension dim="3">spin</dimension>
    <field>eigene</field>
    <field>occ</field>
    <set>
     <set comment="spin 1">
      <set comment="kpoint 1">
       <r>   -6.1980    1.0000 </r>
       <r>   -2.1294    1.0000 </r>
       <r>   -2.1294    1.0000 </r>
       <r>   -2.1294    1.0000 </r>
       <r>   -2.1294    1.0000 </r>
       <r>   -2.1294    1.0000 </r>
       <r>   -2.1294    1.0000 </r>
       <r>    2.8227    1.0000 </r>
       <r>    2.8227    1.0000 </r>
       <r>    2.8227    1.0000 </r>
       <r>    2.8227    1.0000 </r>
       <r>    2.8227    1.0000 </r>
       <r>    2.8227    1.0000 </r>
       <r>    5.6168    1.0000 </r>
       <r>    5.6168    1.0000 </r>
       <r>    5.6168    1.0000 </r>
       <r>    6.3682    0.0000 </r>
       <r>    6.3682    0.0000 </r>
       <r>    6.3682    0.0000 </r>
       <r>    6.3682    0.0000 </r>
       <r>    6.3682    0.0000 </r>
      </set>
      <set comment="kpoint 2">
       <r>   -6.0262    1.0000 </r>
       <r>   -3.5349    1.0000 </r>
       <r>   -2.0791    1.0000 </r>
       <r>   -2.0791    1.0000 </r>
       <r>   -2.0791    1.0000 </r>
       <r>   -2.0791    1.0000 </r>
       <r>   -0.5203    1.0000 </r>
       <r>    2.4275    1.0000 </r>
       <r>    2.4275    1.0000 </r>
       <r>    2.4275    1.0000 </r>
       <r>    2.4275    1.0000 </r>
       <r>    2.9775    1.0000 </r>
       <r>    2.9775    1.0000 </r>
       <r>    4.6612    1.0000 </r>
       <r>    5.0553    1.0000 </r>
       <r>    5.0553    1.0000 </r>
       <r>    6.2344    0.0000 </r>
       <r>    6.9699    0.0000 </r>
       <r>    7.2029    0.0000 </r>
       <r>    7.2029    0.0000 </r>
       <r>    7.2030    0.0000 </r>
      </set>
      <set comment="kpoint 3">
       <r>   -5.5149    1.0000 </r>
       <r>   -4.6765    1.0000 </r>
       <r>   -1.9909    1.0000 </r>
       <r>   -1.9909    1.0000 </r>
       <r>   -1.9909    1.0000 </r>
       <r>   -1.9909    1.0000 </r>
       <r>    1.2127    1.0000 </r>
       <r>    1.9306    1.0000 </r>
       <r>    1.9306    1.0000 </r>
       <r>    1.9306    1.0000 </r>
       <r>    1.9306    1.0000 </r>
       <r>    2.9822    1.0000 </r>
       <r>    3.4345    1.0000 </r>
       <r>    3.4345    1.0000 </r>
       <r>    4.1625    1.0000 </r>
       <r>    4.1625    1.0000 </r>
       <r>    6.5061    0.0000 </r>
       <r>    7.0929    0.0000 </r>
       <r>    8.0529    0.0000 </r>
       <r>    9.0422    0.0000 </r>
       <r>    9.0445    0.0000 </r>
      </set>
      <set comment="kpoint 4">
       <r>   -5.8567    1.0000 </r>
       <r>   -3.4199    1.0000 </r>
       <r>   -3.4199    1.0000 </r>
       <r>   -2.3595    1.0000 </r>
       <r>   -1.7563    1.0000 </r>
       <r>   -0.6055    1.0000 </r>
       <r>   -0.6055    1.0000 </r>
       <r>    1.6476    1.0000 </r>
       <r>    2.4684    1.0000 </r>
       <r>    2.4684    1.0000 </r>
       <r>    2.7896    1.0000 </r>
       <r>    2.7896    1.0000 </r>
       <r>    3.0934    1.0000 </r>
       <r>    3.5900    1.0000 </r>
       <r>    4.4857    1.0000 </r>
       <r>    5.4414    1.0000 </r>
       <r>    6.6803    0.0000 </r>
       <r>    7.1199    0.0000 </r>
       <r>    7.1200    0.0000 </r>
       <r>    7.7132    0.0000 </r>
       <r>    7.7147    0.0000 </r>
      </set>
      <set comment="kpoint 5">
       <r>   -5.3528    1.0000 </r>
       <r>   -4.5302    1.0000 </r>
       <r>   -3.1084    1.0000 </r>
       <r>   -2.7078    1.0000 </r>
       <r>   -1.3368    1.0000 </r>
       <r>   -0.8975    1.0000 </r>
       <r>    0.8668    1.0000 </r>
       <r>    1.3814    1.0000 </r>
       <r>    1.7277    1.0000 </r>
       <r>    2.2552    1.0000 </r>
       <r>    2.6948    1.0000 </r>
       <r>    2.8710    1.0000 </r>
       <r>    2.9639    1.0000 </r>
       <r>    3.5759    1.0000 </r>
       <r>    3.5839    1.0000 </r>
       <r>    4.6614    1.0000 </r>
       <r>    7.4033    0.0000 </r>
       <r>    7.7914    0.0000 </r>
       <r>    7.9617    0.0000 </r>
       <r>    8.6864    0.0000 </r>
       <r>    9.0728    0.0000 </r>
      </set>
      <set comment="kpoint 6">
       <r>   -4.8744    1.0000 </r>
       <r>   -4.1066    1.0000 </r>
       <r>   -4.1066    1.0000 </r>
       <r>   -3.4610    1.0000 </r>
       <r>   -0.6458    1.0000 </r>
       <r>    0.1279    1.0000 </r>
       <r>    0.1279    1.0000 </r>
       <r>    1.1703    1.0000 </r>
       <r>    1.4484    1.0000 </r>
       <r>    2.0136    1.0000 </r>
       <r>    2.0136    1.0000 </r>
       <r>    2.6834    1.0000 </r>
       <r>    3.8376    1.0000 </r>
       <r>    3.8653    1.0000 </r>
       <r>    3.8653    1.0000 </r>
       <r>    4.7858    1.0000 </r>
       <r>    7.5351    0.0000 </r>
       <r>    8.4677    0.0000 </r>
       <r>    8.7764    0.0000 </r>
       <r>    8.7777    0.0000 </r>
       <r>    9.2690    0.0000 </r>
      </set>
      <set comment="kpoint 7">
       <r>   -5.6900    1.0000 </r>
       <r>   -3.3415    1.0000 </r>
       <r>   -3.3415    1.0000 </r>
       <r>   -3.3415    1.0000 </r>
       <r>   -0.7615    1.0000 </r>
       <r>   -0.7615    1.0000 </r>
       <r>   -0.7615    1.0000 </r>
       <r>    2.0135    1.0000 </r>
       <r>    2.0135    1.0000 </r>
       <r>    2.0135    1.0000 </r>
       <r>    2.6349    1.0000 </r>
       <r>    3.2388    1.0000 </r>
       <r>    3.2388    1.0000 </r>
       <r>    3.2388    1.0000 </r>
       <r>    5.0493    1.0000 </r>
       <r>    5.0493    1.0000 </r>
       <r>    6.8748    0.0000 </r>
       <r>    6.8748    0.0000 </r>
       <r>    6.8748    0.0000 </r>
       <r>    7.7695    0.0000 </r>
       <r>    8.9829    0.0000 </r>
      </set>
      <set comment="kpoint 8">
       <r>   -5.1959    1.0000 </r>
       <r>   -4.3959    1.0000 </r>
       <r>   -3.1921    1.0000 </r>
       <r>   -3.1921    1.0000 </r>
       <r>   -1.0535    1.0000 </r>
       <r>   -1.0535    1.0000 </r>
       <r>    0.3534    1.0000 </r>
       <r>    1.4446    1.0000 </r>
       <r>    1.8602    1.0000 </r>
       <r>    1.8602    1.0000 </r>
       <r>    3.0400    1.0000 </r>
       <r>    3.2024    1.0000 </r>
       <r>    3.2024    1.0000 </r>
       <r>    3.6623    1.0000 </r>
       <r>    4.3145    1.0000 </r>
       <r>    4.3589    1.0000 </r>
       <r>    7.4036    0.0000 </r>
       <r>    7.9637    0.0000 </r>
       <r>    7.9637    0.0000 </r>
       <r>    7.9641    0.0000 </r>
       <r>    8.9589    0.0000 </r>
      </set>
      <set comment="kpoint 9">
       <r>   -4.7372    1.0000 </r>
       <r>   -4.0234    1.0000 </r>
       <r>   -4.0234    1.0000 </r>
       <r>   -3.5351    1.0000 </r>
       <r>   -1.0049    1.0000 </r>
       <r>   -0.4601    1.0000 </r>
       <r>   -0.4601    1.0000 </r>
       <r>    0.3848    1.0000 </r>
       <r>    2.2473    1.0000 </r>
       <r>    2.7664    1.0000 </r>
       <r>    2.7664    1.0000 </r>
       <r>    3.6075    1.0000 </r>
       <r>    3.9369    1.0000 </r>
       <r>    3.9550    1.0000 </r>
       <r>    3.9550    1.0000 </r>
       <r>    4.7214    1.0000 </r>
       <r>    7.6752    0.0000 </r>
       <r>    7.9684    0.0000 </r>
       <r>    8.3403    0.0000 </r>
       <r>    8.3449    0.0000 </r>
       <r>    8.8973    0.0000 </r>
      </set>
      <set comment="kpoint 10">
       <r>   -4.3568    1.0000 </r>
       <r>   -3.8645    1.0000 </r>
       <r>   -3.8645    1.0000 </r>
       <r>   -3.8645    1.0000 </r>
       <r>   -1.1125    1.0000 </r>
       <r>   -1.1125    1.0000 </r>
       <r>   -1.1125    1.0000 </r>
       <r>   -0.5714    1.0000 </r>
       <r>    3.6693    1.0000 </r>
       <r>    3.6693    1.0000 </r>
       <r>    3.6693    1.0000 </r>
       <r>    4.1988    1.0000 </r>
       <r>    4.1988    1.0000 </r>
       <r>    4.1988    1.0000 </r>
       <r>    4.5093    1.0000 </r>
       <r>    4.5093    1.0000 </r>
       <r>    7.1657    0.0000 </r>
       <r>    7.7139    0.0000 </r>
       <r>    7.7145    0.0000 </r>
       <r>    7.7146    0.0000 </r>
       <r>    8.9365    0.0000 </r>
      </set>
     </set>
    </set>
   </array>
  </eigenvalues>
  <separator name="orbital magnetization" >
   <v name="MAGDIPOLOUT">      0.00000000      0.00000000      0.00000000</v>
  </separator>
  <dos>
   <i name="efermi">      6.23421897 </i>
   <total>
    <array>
     <dimension dim="1">gridpoints</dimension>
     <dimension dim="2">spin</dimension>
     <field>energy</field>
     <field>total</field>
     <field>integrated</field>
     <set>
      <set comment="spin 1">
       <r>    -8.1980     0.0000     0.0000 </r>
       <r>    -8.1331     0.0000     0.0000 </r>
       <r>    -8.0682     0.0000     0.0000 </r>
       <r>    -8.0033     0.0000     0.0000 </r>
       <r>    -7.9384     0.0000     0.0000 </r>
       <r>    -7.8735     0.0000     0.0000 </r>
       <r>    -7.8086     0.0000     0.0000 </r>
       <r>    -7.7437     0.0000     0.0000 </r>
       <r>    -7.6788     0.0000     0.0000 </r>
       <r>    -7.6140     0.0000     0.0000 </r>
       <r>    -7.5491     0.0000     0.0000 </r>
       <r>    -7.4842     0.0000     0.0000 </r>
       <r>    -7.4193     0.0000     0.0000 </r>
       <r>    -7.3544     0.0000     0.0000 </r>
       <r>    -7.2895     0.0000     0.0000 </r>
       <r>    -7.2246     0.0000     0.0000 </r>
       <r>    -7.1597     0.0000     0.0000 </r>
       <r>    -7.0948     0.0000     0.0000 </r>
       <r>    -7.0299     0.0000     0.0000 </r>
       <r>    -6.9651     0.0000     0.0000 </r>
       <r>    -6.9002     0.0000     0.0000 </r>
       <r>    -6.8353     0.0000     0.0000 </r>
       <r>    -6.7704     0.0000     0.0000 </r>
       <r>    -6.7055     0.0000     0.0000 </r>
       <r>    -6.6406     0.0000     0.0000 </r>
       <r>    -6.5757     0.0000     0.0000 </r>
       <r>    -6.5108     0.0000     0.0000 </r>
       <r>    -6.4459     0.0000     0.0000 </r>
       <r>    -6.3810     0.0000     0.0000 </r>
       <r>    -6.3162     0.0000     0.0000 </r>
       <r>    -6.2513     0.0000     0.0000 </r>
       <r>    -6.1864     0.0017     0.0000 </r>
       <r>    -6.1215     0.0746     0.0019 </r>
       <r>    -6.0566     0.2550     0.0120 </r>
       <r>    -5.9917     0.5152     0.0370 </r>
       <r>    -5.9268     0.6923     0.0768 </r>
       <r>    -5.8619     0.7600     0.1245 </r>
       <r>    -5.7970     0.7771     0.1742 </r>
       <r>    -5.7321     0.8333     0.2262 </r>
       <r>    -5.6673     0.9274     0.2832 </r>
       <r>    -5.6024     1.0339     0.3468 </r>
       <r>    -5.5375     1.1455     0.4175 </r>
       <r>    -5.4726     1.5474     0.5018 </r>
       <r>    -5.4077     2.0038     0.6176 </r>
       <r>    -5.3428     2.2637     0.7590 </r>
       <r>    -5.2779     1.9516     0.8955 </r>
       <r>    -5.2130     1.6879     1.0133 </r>
       <r>    -5.1481     1.6185     1.1192 </r>
       <r>    -5.0832     1.5977     1.2236 </r>
       <r>    -5.0184     1.5654     1.3263 </r>
       <r>    -4.9535     1.5216     1.4265 </r>
       <r>    -4.8886     1.4662     1.5235 </r>
       <r>    -4.8237     1.8098     1.6445 </r>
       <r>    -4.7588     1.4090     1.7488 </r>
       <r>    -4.6939     0.7943     1.8141 </r>
       <r>    -4.6290     1.1257     1.8722 </r>
       <r>    -4.5641     1.6919     1.9632 </r>
       <r>    -4.4992     2.1402     2.0915 </r>
       <r>    -4.4343     2.2183     2.2333 </r>
       <r>    -4.3695     2.2784     2.3785 </r>
       <r>    -4.3046     2.4387     2.5343 </r>
       <r>    -4.2397     2.3502     2.6818 </r>
       <r>    -4.1748     2.4840     2.8388 </r>
       <r>    -4.1099     2.5936     3.0036 </r>
       <r>    -4.0450     4.5813     3.3043 </r>
       <r>    -3.9801     4.0600     3.5860 </r>
       <r>    -3.9152     3.4988     3.8312 </r>
       <r>    -3.8503     2.9070     4.0762 </r>
       <r>    -3.7854     2.2656     4.2200 </r>
       <r>    -3.7206     2.3805     4.3706 </r>
       <r>    -3.6557     2.5120     4.5293 </r>
       <r>    -3.5908     2.6600     4.6970 </r>
       <r>    -3.5259     4.0253     4.8849 </r>
       <r>    -3.4610     3.9968     5.1909 </r>
       <r>    -3.3961     3.7800     5.4451 </r>
       <r>    -3.3312     3.7904     5.6887 </r>
       <r>    -3.2663     3.8476     5.9374 </r>
       <r>    -3.2014     3.7519     6.1848 </r>
       <r>    -3.1365     3.4195     6.4185 </r>
       <r>    -3.0717     2.1240     6.5911 </r>
       <r>    -3.0068     2.0413     6.7262 </r>
       <r>    -2.9419     1.9609     6.8560 </r>
       <r>    -2.8770     1.8828     6.9807 </r>
       <r>    -2.8121     1.8070     7.1004 </r>
       <r>    -2.7472     1.7335     7.2153 </r>
       <r>    -2.6823     1.5777     7.3236 </r>
       <r>    -2.6174     1.4625     7.4221 </r>
       <r>    -2.5525     1.3574     7.5136 </r>
       <r>    -2.4876     1.2621     7.5985 </r>
       <r>    -2.4228     1.1768     7.6776 </r>
       <r>    -2.3579     1.1019     7.7515 </r>
       <r>    -2.2930     1.0374     7.8210 </r>
       <r>    -2.2281     0.9425     7.8854 </r>
       <r>    -2.1632     0.8172     7.9427 </r>
       <r>    -2.0983     0.6082     7.9903 </r>
       <r>    -2.0334     0.4308     8.0210 </r>
       <r>    -1.9685     0.5375     8.0511 </r>
       <r>    -1.9036     0.7151     8.0919 </r>
       <r>    -1.8387     0.8591     8.1432 </r>
       <r>    -1.7739     0.9697     8.2027 </r>
       <r>    -1.7090     1.0715     8.2688 </r>
       <r>    -1.6441     1.1854     8.3420 </r>
       <r>    -1.5792     1.3078     8.4228 </r>
       <r>    -1.5143     1.4387     8.5119 </r>
       <r>    -1.4494     1.5782     8.6097 </r>
       <r>    -1.3845     1.7262     8.7169 </r>
       <r>    -1.3196     2.0733     8.8372 </r>
       <r>    -1.2547     2.2495     8.9773 </r>
       <r>    -1.1898     2.4614     9.1299 </r>
       <r>    -1.1250     2.7088     9.2975 </r>
       <r>    -1.0601     7.7717     9.6626 </r>
       <r>    -0.9952     6.0557    10.1839 </r>
       <r>    -0.9303     5.3157    10.5126 </r>
       <r>    -0.8654     4.6084    10.8435 </r>
       <r>    -0.8005     4.0672    11.1249 </r>
       <r>    -0.7356     3.5439    11.3715 </r>
       <r>    -0.6707     3.1533    11.5880 </r>
       <r>    -0.6058     2.7483    11.7755 </r>
       <r>    -0.5409     3.1047    11.9855 </r>
       <r>    -0.4761     2.3382    12.1443 </r>
       <r>    -0.4112     2.0073    12.2800 </r>
       <r>    -0.3463     1.9911    12.4097 </r>
       <r>    -0.2814     1.9753    12.5384 </r>
       <r>    -0.2165     1.9598    12.6661 </r>
       <r>    -0.1516     1.9447    12.7928 </r>
       <r>    -0.0867     1.9300    12.9185 </r>
       <r>    -0.0218     1.9156    13.0433 </r>
       <r>     0.0431     1.9015    13.1671 </r>
       <r>     0.1080     1.8879    13.2900 </r>
       <r>     0.1728     1.5480    13.3974 </r>
       <r>     0.2377     1.5325    13.4974 </r>
       <r>     0.3026     1.5145    13.5963 </r>
       <r>     0.3675     1.4901    13.6939 </r>
       <r>     0.4324     1.4740    13.7901 </r>
       <r>     0.4973     1.4488    13.8850 </r>
       <r>     0.5622     1.4222    13.9781 </r>
       <r>     0.6271     1.3941    14.0695 </r>
       <r>     0.6920     1.3645    14.1590 </r>
       <r>     0.7569     1.3335    14.2466 </r>
       <r>     0.8217     1.3010    14.3320 </r>
       <r>     0.8866     1.3457    14.4170 </r>
       <r>     0.9515     1.2800    14.5022 </r>
       <r>     1.0164     1.2257    14.5834 </r>
       <r>     1.0813     1.1828    14.6615 </r>
       <r>     1.1462     1.1513    14.7372 </r>
       <r>     1.2111     1.0724    14.8074 </r>
       <r>     1.2760     1.3009    14.8840 </r>
       <r>     1.3409     1.5947    14.9776 </r>
       <r>     1.4058     2.9587    15.1254 </r>
       <r>     1.4706     1.9598    15.2700 </r>
       <r>     1.5355     2.0613    15.3999 </r>
       <r>     1.6004     2.2592    15.5396 </r>
       <r>     1.6653     2.5181    15.6949 </r>
       <r>     1.7302     3.9425    15.8686 </r>
       <r>     1.7951     4.1062    16.1279 </r>
       <r>     1.8600     4.6117    16.4089 </r>
       <r>     1.9249     4.7445    16.7141 </r>
       <r>     1.9898     5.3365    17.0388 </r>
       <r>     2.0547     5.9201    17.4112 </r>
       <r>     2.1195     5.9396    17.7965 </r>
       <r>     2.1844     5.8729    18.1802 </r>
       <r>     2.2493     5.4909    18.5563 </r>
       <r>     2.3142     4.5807    18.8693 </r>
       <r>     2.3791     4.2839    19.1563 </r>
       <r>     2.4440     6.5328    19.4526 </r>
       <r>     2.5089     3.5667    19.7358 </r>
       <r>     2.5738     3.6529    19.9695 </r>
       <r>     2.6387     3.8338    20.2119 </r>
       <r>     2.7036     4.7900    20.4801 </r>
       <r>     2.7684     5.6813    20.8175 </r>
       <r>     2.8333     6.2881    21.1824 </r>
       <r>     2.8982     8.0970    21.6675 </r>
       <r>     2.9631     6.6110    22.1475 </r>
       <r>     3.0280     7.8194    22.6355 </r>
       <r>     3.0929     7.3711    23.1358 </r>
       <r>     3.1578     6.2345    23.5784 </r>
       <r>     3.2227     4.6500    23.9369 </r>
       <r>     3.2876     3.8608    24.2088 </r>
       <r>     3.3525     3.4922    24.4456 </r>
       <r>     3.4173     3.4523    24.6691 </r>
       <r>     3.4822     4.3175    24.9148 </r>
       <r>     3.5471     5.5843    25.2351 </r>
       <r>     3.6120     7.0528    25.6781 </r>
       <r>     3.6769     6.4576    26.1326 </r>
       <r>     3.7418     5.8345    26.5076 </r>
       <r>     3.8067     5.9150    26.8890 </r>
       <r>     3.8716     8.7877    27.3176 </r>
       <r>     3.9365     7.3800    27.8413 </r>
       <r>     4.0014     5.2066    28.2189 </r>
       <r>     4.0662     4.6431    28.5385 </r>
       <r>     4.1311     4.0735    28.8213 </r>
       <r>     4.1960     3.5136    29.0673 </r>
       <r>     4.2609     3.1215    29.2789 </r>
       <r>     4.3258     2.1783    29.4260 </r>
       <r>     4.3907     2.5297    29.5726 </r>
       <r>     4.4556     3.2929    29.7613 </r>
       <r>     4.5205     4.8538    30.0359 </r>
       <r>     4.5854     4.9854    30.3399 </r>
       <r>     4.6503     5.4723    30.6800 </r>
       <r>     4.7151     5.4335    31.0232 </r>
       <r>     4.7800     3.5072    31.3297 </r>
       <r>     4.8449     1.5832    31.4490 </r>
       <r>     4.9098     1.3644    31.5446 </r>
       <r>     4.9747     1.1600    31.6264 </r>
       <r>     5.0396     0.9700    31.6954 </r>
       <r>     5.1045     0.9639    31.7571 </r>
       <r>     5.1694     0.9468    31.8195 </r>
       <r>     5.2343     0.8607    31.8785 </r>
       <r>     5.2992     0.7058    31.9297 </r>
       <r>     5.3641     0.4819    31.9686 </r>
       <r>     5.4289     0.1892    31.9907 </r>
       <r>     5.4938     0.0614    31.9975 </r>
       <r>     5.5587     0.0137    31.9997 </r>
       <r>     5.6236     0.0000    32.0000 </r>
       <r>     5.6885     0.0000    32.0000 </r>
       <r>     5.7534     0.0000    32.0000 </r>
       <r>     5.8183     0.0000    32.0000 </r>
       <r>     5.8832     0.0000    32.0000 </r>
       <r>     5.9481     0.0000    32.0000 </r>
       <r>     6.0130     0.0000    32.0000 </r>
       <r>     6.0778     0.0000    32.0000 </r>
       <r>     6.1427     0.0000    32.0000 </r>
       <r>     6.2076     0.0000    32.0000 </r>
       <r>     6.2725     0.1426    32.0028 </r>
       <r>     6.3374     0.3089    32.0180 </r>
       <r>     6.4023     0.3947    32.0410 </r>
       <r>     6.4672     0.4898    32.0696 </r>
       <r>     6.5321     0.6131    32.1051 </r>
       <r>     6.5970     0.7349    32.1490 </r>
       <r>     6.6619     0.8329    32.2000 </r>
       <r>     6.7267     0.9022    32.2563 </r>
       <r>     6.7916     1.0037    32.3179 </r>
       <r>     6.8565     1.1490    32.3875 </r>
       <r>     6.9214     1.4294    32.4694 </r>
       <r>     6.9863     2.1624    32.5822 </r>
       <r>     7.0512     2.7925    32.7469 </r>
       <r>     7.1161     2.7468    32.9294 </r>
       <r>     7.1810     3.6574    33.1525 </r>
       <r>     7.2459     3.2666    33.3584 </r>
       <r>     7.3108     3.6399    33.5826 </r>
       <r>     7.3756     4.0043    33.8306 </r>
       <r>     7.4405     7.0335    34.2318 </r>
       <r>     7.5054     5.7488    34.6221 </r>
       <r>     7.5703     5.6179    34.9974 </r>
       <r>     7.6352     4.5947    35.3283 </r>
       <r>     7.7001     2.6428    35.5653 </r>
       <r>     7.7650     4.5841    35.8324 </r>
       <r>     7.8299     5.2636    36.1280 </r>
       <r>     7.8948     6.5235    36.5094 </r>
       <r>     7.9597     7.9697    36.9786 </r>
       <r>     8.0245     8.4959    37.6230 </r>
       <r>     8.0894     5.3777    37.9905 </r>
       <r>     8.1543     5.1993    38.3340 </r>
       <r>     8.2192     4.9598    38.6639 </r>
       <r>     8.2841     4.6591    38.9764 </r>
       <r>     8.3490     3.6332    39.2630 </r>
       <r>     8.4139     3.3670    39.4901 </r>
       <r>     8.4788     2.9401    39.6982 </r>
       <r>     8.5437     2.8088    39.8847 </r>
       <r>     8.6086     2.6742    40.0626 </r>
       <r>     8.6734     2.5361    40.2317 </r>
       <r>     8.7383     1.9279    40.3825 </r>
       <r>     8.8032     1.0005    40.4749 </r>
       <r>     8.8681     0.9291    40.5374 </r>
       <r>     8.9330    11.0225    40.9083 </r>
       <r>     8.9979     5.5309    41.3198 </r>
       <r>     9.0628     6.2951    41.6831 </r>
       <r>     9.1277     1.7644    41.8677 </r>
       <r>     9.1926     0.9607    41.9551 </r>
       <r>     9.2575     0.3477    41.9965 </r>
       <r>     9.3223     0.0000    42.0000 </r>
       <r>     9.3872     0.0000    42.0000 </r>
       <r>     9.4521     0.0000    42.0000 </r>
       <r>     9.5170     0.0000    42.0000 </r>
       <r>     9.5819     0.0000    42.0000 </r>
       <r>     9.6468     0.0000    42.0000 </r>
       <r>     9.7117     0.0000    42.0000 </r>
       <r>     9.7766     0.0000    42.0000 </r>
       <r>     9.8415     0.0000    42.0000 </r>
       <r>     9.9064     0.0000    42.0000 </r>
       <r>     9.9712     0.0000    42.0000 </r>
       <r>    10.0361     0.0000    42.0000 </r>
       <r>    10.1010     0.0000    42.0000 </r>
       <r>    10.1659     0.0000    42.0000 </r>
       <r>    10.2308     0.0000    42.0000 </r>
       <r>    10.2957     0.0000    42.0000 </r>
       <r>    10.3606     0.0000    42.0000 </r>
       <r>    10.4255     0.0000    42.0000 </r>
       <r>    10.4904     0.0000    42.0000 </r>
       <r>    10.5553     0.0000    42.0000 </r>
       <r>    10.6201     0.0000    42.0000 </r>
       <r>    10.6850     0.0000    42.0000 </r>
       <r>    10.7499     0.0000    42.0000 </r>
       <r>    10.8148     0.0000    42.0000 </r>
       <r>    10.8797     0.0000    42.0000 </r>
       <r>    10.9446     0.0000    42.0000 </r>
       <r>    11.0095     0.0000    42.0000 </r>
       <r>    11.0744     0.0000    42.0000 </r>
       <r>    11.1393     0.0000    42.0000 </r>
       <r>    11.2042     0.0000    42.0000 </r>
       <r>    11.2690     0.0000    42.0000 </r>
      </set>
     </set>
    </array>
   </total>
  </dos>
 </calculation>
 <structure name="finalpos" >
  <crystal>
   <varray name="basis" >
    <v>       5.46872800      -0.00000000      -0.00000000 </v>
    <v>       0.00000000       5.46872800      -0.00000000 </v>
    <v>       0.00000000       0.00000000       5.46872800 </v>
   </varray>
   <i name="volume">    163.55317139 </i>
   <varray name="rec_basis" >
    <v>       0.18285788      -0.00000000       0.00000000 </v>
    <v>       0.00000000       0.18285788      -0.00000000 </v>
    <v>       0.00000000       0.00000000       0.18285788 </v>
   </varray>
  </crystal>
  <varray name="positions" >
   <v>       0.75000000       0.25000000       0.25000000 </v>
   <v>       0.50000000       0.50000000       0.50000000 </v>
   <v>       0.00000000       0.00000000       0.50000000 </v>
   <v>       0.75000000       0.75000000       0.75000000 </v>
   <v>       0.00000000       0.50000000       0.00000000 </v>
   <v>       0.25000000       0.75000000       0.25000000 </v>
   <v>       0.25000000       0.25000000       0.75000000 </v>
   <v>       0.50000000       0.00000000       0.00000000 </v>
  </varray>
 </structure>
</modeling>
