   8   8   0   0
  0.2510127E+02  0.5855921E-09  0.5855921E-09  0.5855921E-09  0.5000000E-15
   1.0000000000000000E-004
  CAR 
 unknown system                          
      3.15609385    -27.06370453  301      0.43714582      1.00000000
    -27.064  0.0000E+00  0.0000E+00
    -26.963  0.0000E+00  0.0000E+00
    -26.862  0.0000E+00  0.0000E+00
    -26.762  0.0000E+00  0.0000E+00
    -26.661  0.0000E+00  0.0000E+00
    -26.560  0.0000E+00  0.0000E+00
    -26.459  0.0000E+00  0.0000E+00
    -26.359  0.0000E+00  0.0000E+00
    -26.258  0.0000E+00  0.0000E+00
    -26.157  0.0000E+00  0.0000E+00
    -26.056  0.0000E+00  0.0000E+00
    -25.956  0.0000E+00  0.0000E+00
    -25.855  0.0000E+00  0.0000E+00
    -25.754  0.0000E+00  0.0000E+00
    -25.653  0.0000E+00  0.0000E+00
    -25.553  0.0000E+00  0.0000E+00
    -25.452  0.0000E+00  0.0000E+00
    -25.351  0.0000E+00  0.0000E+00
    -25.251  0.0000E+00  0.0000E+00
    -25.150  0.0000E+00  0.0000E+00
    -25.049  0.1458E+01  0.6881E-02
    -24.948  0.6941E+00  0.8000E-01
    -24.848  0.0000E+00  0.8000E-01
    -24.747  0.0000E+00  0.8000E-01
    -24.646  0.0000E+00  0.8000E-01
    -24.545  0.0000E+00  0.8000E-01
    -24.445  0.0000E+00  0.8000E-01
    -24.344  0.0000E+00  0.8000E-01
    -24.243  0.0000E+00  0.8000E-01
    -24.142  0.0000E+00  0.8000E-01
    -24.042  0.0000E+00  0.8000E-01
    -23.941  0.0000E+00  0.8000E-01
    -23.840  0.0000E+00  0.8000E-01
    -23.740  0.0000E+00  0.8000E-01
    -23.639  0.0000E+00  0.8000E-01
    -23.538  0.0000E+00  0.8000E-01
    -23.437  0.0000E+00  0.8000E-01
    -23.337  0.0000E+00  0.8000E-01
    -23.236  0.0000E+00  0.8000E-01
    -23.135  0.0000E+00  0.8000E-01
    -23.034  0.0000E+00  0.8000E-01
    -22.934  0.0000E+00  0.8000E-01
    -22.833  0.0000E+00  0.8000E-01
    -22.732  0.0000E+00  0.8000E-01
    -22.631  0.0000E+00  0.8000E-01
    -22.531  0.0000E+00  0.8000E-01
    -22.430  0.0000E+00  0.8000E-01
    -22.329  0.0000E+00  0.8000E-01
    -22.229  0.0000E+00  0.8000E-01
    -22.128  0.0000E+00  0.8000E-01
    -22.027  0.0000E+00  0.8000E-01
    -21.926  0.0000E+00  0.8000E-01
    -21.826  0.0000E+00  0.8000E-01
    -21.725  0.0000E+00  0.8000E-01
    -21.624  0.0000E+00  0.8000E-01
    -21.523  0.0000E+00  0.8000E-01
    -21.423  0.0000E+00  0.8000E-01
    -21.322  0.0000E+00  0.8000E-01
    -21.221  0.0000E+00  0.8000E-01
    -21.120  0.0000E+00  0.8000E-01
    -21.020  0.0000E+00  0.8000E-01
    -20.919  0.0000E+00  0.8000E-01
    -20.818  0.0000E+00  0.8000E-01
    -20.718  0.0000E+00  0.8000E-01
    -20.617  0.0000E+00  0.8000E-01
    -20.516  0.0000E+00  0.8000E-01
    -20.415  0.0000E+00  0.8000E-01
    -20.315  0.0000E+00  0.8000E-01
    -20.214  0.0000E+00  0.8000E-01
    -20.113  0.0000E+00  0.8000E-01
    -20.012  0.0000E+00  0.8000E-01
    -19.912  0.0000E+00  0.8000E-01
    -19.811  0.0000E+00  0.8000E-01
    -19.710  0.0000E+00  0.8000E-01
    -19.609  0.0000E+00  0.8000E-01
    -19.509  0.0000E+00  0.8000E-01
    -19.408  0.0000E+00  0.8000E-01
    -19.307  0.0000E+00  0.8000E-01
    -19.207  0.0000E+00  0.8000E-01
    -19.106  0.0000E+00  0.8000E-01
    -19.005  0.0000E+00  0.8000E-01
    -18.904  0.0000E+00  0.8000E-01
    -18.804  0.0000E+00  0.8000E-01
    -18.703  0.0000E+00  0.8000E-01
    -18.602  0.0000E+00  0.8000E-01
    -18.501  0.0000E+00  0.8000E-01
    -18.401  0.0000E+00  0.8000E-01
    -18.300  0.0000E+00  0.8000E-01
    -18.199  0.0000E+00  0.8000E-01
    -18.098  0.0000E+00  0.8000E-01
    -17.998  0.0000E+00  0.8000E-01
    -17.897  0.0000E+00  0.8000E-01
    -17.796  0.0000E+00  0.8000E-01
    -17.696  0.0000E+00  0.8000E-01
    -17.595  0.0000E+00  0.8000E-01
    -17.494  0.0000E+00  0.8000E-01
    -17.393  0.0000E+00  0.8000E-01
    -17.293  0.0000E+00  0.8000E-01
    -17.192  0.0000E+00  0.8000E-01
    -17.091  0.0000E+00  0.8000E-01
    -16.990  0.0000E+00  0.8000E-01
    -16.890  0.0000E+00  0.8000E-01
    -16.789  0.0000E+00  0.8000E-01
    -16.688  0.0000E+00  0.8000E-01
    -16.588  0.0000E+00  0.8000E-01
    -16.487  0.0000E+00  0.8000E-01
    -16.386  0.0000E+00  0.8000E-01
    -16.285  0.0000E+00  0.8000E-01
    -16.185  0.0000E+00  0.8000E-01
    -16.084  0.0000E+00  0.8000E-01
    -15.983  0.0000E+00  0.8000E-01
    -15.882  0.0000E+00  0.8000E-01
    -15.782  0.0000E+00  0.8000E-01
    -15.681  0.0000E+00  0.8000E-01
    -15.580  0.0000E+00  0.8000E-01
    -15.479  0.0000E+00  0.8000E-01
    -15.379  0.0000E+00  0.8000E-01
    -15.278  0.0000E+00  0.8000E-01
    -15.177  0.0000E+00  0.8000E-01
    -15.077  0.0000E+00  0.8000E-01
    -14.976  0.0000E+00  0.8000E-01
    -14.875  0.0000E+00  0.8000E-01
    -14.774  0.0000E+00  0.8000E-01
    -14.674  0.0000E+00  0.8000E-01
    -14.573  0.0000E+00  0.8000E-01
    -14.472  0.0000E+00  0.8000E-01
    -14.371  0.0000E+00  0.8000E-01
    -14.271  0.0000E+00  0.8000E-01
    -14.170  0.0000E+00  0.8000E-01
    -14.069  0.0000E+00  0.8000E-01
    -13.968  0.0000E+00  0.8000E-01
    -13.868  0.0000E+00  0.8000E-01
    -13.767  0.0000E+00  0.8000E-01
    -13.666  0.0000E+00  0.8000E-01
    -13.566  0.0000E+00  0.8000E-01
    -13.465  0.0000E+00  0.8000E-01
    -13.364  0.0000E+00  0.8000E-01
    -13.263  0.0000E+00  0.8000E-01
    -13.163  0.0000E+00  0.8000E-01
    -13.062  0.0000E+00  0.8000E-01
    -12.961  0.0000E+00  0.8000E-01
    -12.860  0.0000E+00  0.8000E-01
    -12.760  0.0000E+00  0.8000E-01
    -12.659  0.0000E+00  0.8000E-01
    -12.558  0.0000E+00  0.8000E-01
    -12.457  0.0000E+00  0.8000E-01
    -12.357  0.0000E+00  0.8000E-01
    -12.256  0.0000E+00  0.8000E-01
    -12.155  0.0000E+00  0.8000E-01
    -12.055  0.0000E+00  0.8000E-01
    -11.954  0.0000E+00  0.8000E-01
    -11.853  0.0000E+00  0.8000E-01
    -11.752  0.0000E+00  0.8000E-01
    -11.652  0.0000E+00  0.8000E-01
    -11.551  0.0000E+00  0.8000E-01
    -11.450  0.0000E+00  0.8000E-01
    -11.349  0.0000E+00  0.8000E-01
    -11.249  0.0000E+00  0.8000E-01
    -11.148  0.0000E+00  0.8000E-01
    -11.047  0.0000E+00  0.8000E-01
    -10.946  0.0000E+00  0.8000E-01
    -10.846  0.0000E+00  0.8000E-01
    -10.745  0.0000E+00  0.8000E-01
    -10.644  0.0000E+00  0.8000E-01
    -10.544  0.0000E+00  0.8000E-01
    -10.443  0.1398E+01  0.1364E+00
    -10.342  0.1858E+00  0.1600E+00
    -10.241  0.0000E+00  0.1600E+00
    -10.141  0.0000E+00  0.1600E+00
    -10.040  0.0000E+00  0.1600E+00
     -9.939  0.0000E+00  0.1600E+00
     -9.838  0.0000E+00  0.1600E+00
     -9.738  0.0000E+00  0.1600E+00
     -9.637  0.0000E+00  0.1600E+00
     -9.536  0.0000E+00  0.1600E+00
     -9.435  0.0000E+00  0.1600E+00
     -9.335  0.0000E+00  0.1600E+00
     -9.234  0.0000E+00  0.1600E+00
     -9.133  0.0000E+00  0.1600E+00
     -9.033  0.0000E+00  0.1600E+00
     -8.932  0.0000E+00  0.1600E+00
     -8.831  0.0000E+00  0.1600E+00
     -8.730  0.0000E+00  0.1600E+00
     -8.630  0.0000E+00  0.1600E+00
     -8.529  0.1118E+01  0.1848E+00
     -8.428  0.4617E+00  0.2350E+00
     -8.327  0.6351E+00  0.2698E+00
     -8.227  0.4289E+00  0.3200E+00
     -8.126  0.0000E+00  0.3200E+00
     -8.025  0.0000E+00  0.3200E+00
     -7.924  0.0000E+00  0.3200E+00
     -7.824  0.0000E+00  0.3200E+00
     -7.723  0.0000E+00  0.3200E+00
     -7.622  0.0000E+00  0.3200E+00
     -7.522  0.3020E-02  0.3201E+00
     -7.421  0.1686E-01  0.3210E+00
     -7.320  0.2922E-01  0.3232E+00
     -7.219  0.1088E+00  0.3283E+00
     -7.119  0.1351E+00  0.3381E+00
     -7.018  0.4659E+00  0.3545E+00
     -6.917  0.6064E+00  0.3899E+00
     -6.816  0.2065E-01  0.4000E+00
     -6.716  0.0000E+00  0.4000E+00
     -6.615  0.0000E+00  0.4000E+00
     -6.514  0.0000E+00  0.4000E+00
     -6.414  0.0000E+00  0.4000E+00
     -6.313  0.0000E+00  0.4000E+00
     -6.212  0.0000E+00  0.4000E+00
     -6.111  0.0000E+00  0.4000E+00
     -6.011  0.0000E+00  0.4000E+00
     -5.910  0.0000E+00  0.4000E+00
     -5.809  0.0000E+00  0.4000E+00
     -5.708  0.0000E+00  0.4000E+00
     -5.608  0.0000E+00  0.4000E+00
     -5.507  0.0000E+00  0.4000E+00
     -5.406  0.0000E+00  0.4000E+00
     -5.305  0.0000E+00  0.4000E+00
     -5.205  0.0000E+00  0.4000E+00
     -5.104  0.0000E+00  0.4000E+00
     -5.003  0.0000E+00  0.4000E+00
     -4.903  0.0000E+00  0.4000E+00
     -4.802  0.0000E+00  0.4000E+00
     -4.701  0.0000E+00  0.4000E+00
     -4.600  0.0000E+00  0.4000E+00
     -4.500  0.0000E+00  0.4000E+00
     -4.399  0.0000E+00  0.4000E+00
     -4.298  0.0000E+00  0.4000E+00
     -4.197  0.0000E+00  0.4000E+00
     -4.097  0.0000E+00  0.4000E+00
     -3.996  0.0000E+00  0.4000E+00
     -3.895  0.0000E+00  0.4000E+00
     -3.794  0.0000E+00  0.4000E+00
     -3.694  0.0000E+00  0.4000E+00
     -3.593  0.0000E+00  0.4000E+00
     -3.492  0.0000E+00  0.4000E+00
     -3.392  0.0000E+00  0.4000E+00
     -3.291  0.0000E+00  0.4000E+00
     -3.190  0.0000E+00  0.4000E+00
     -3.089  0.0000E+00  0.4000E+00
     -2.989  0.0000E+00  0.4000E+00
     -2.888  0.0000E+00  0.4000E+00
     -2.787  0.0000E+00  0.4000E+00
     -2.686  0.0000E+00  0.4000E+00
     -2.586  0.0000E+00  0.4000E+00
     -2.485  0.0000E+00  0.4000E+00
     -2.384  0.0000E+00  0.4000E+00
     -2.283  0.0000E+00  0.4000E+00
     -2.183  0.0000E+00  0.4000E+00
     -2.082  0.0000E+00  0.4000E+00
     -1.981  0.0000E+00  0.4000E+00
     -1.881  0.0000E+00  0.4000E+00
     -1.780  0.0000E+00  0.4000E+00
     -1.679  0.0000E+00  0.4000E+00
     -1.578  0.0000E+00  0.4000E+00
     -1.478  0.0000E+00  0.4000E+00
     -1.377  0.0000E+00  0.4000E+00
     -1.276  0.0000E+00  0.4000E+00
     -1.175  0.0000E+00  0.4000E+00
     -1.075  0.0000E+00  0.4000E+00
     -0.974  0.0000E+00  0.4000E+00
     -0.873  0.0000E+00  0.4000E+00
     -0.772  0.0000E+00  0.4000E+00
     -0.672  0.0000E+00  0.4000E+00
     -0.571  0.0000E+00  0.4000E+00
     -0.470  0.0000E+00  0.4000E+00
     -0.370  0.0000E+00  0.4000E+00
     -0.269  0.0000E+00  0.4000E+00
     -0.168  0.0000E+00  0.4000E+00
     -0.067  0.0000E+00  0.4000E+00
      0.033  0.0000E+00  0.4000E+00
      0.134  0.0000E+00  0.4000E+00
      0.235  0.0000E+00  0.4000E+00
      0.336  0.0000E+00  0.4000E+00
      0.436  0.0000E+00  0.4000E+00
      0.537  0.4954E-01  0.4019E+00
      0.638  0.1276E+00  0.4102E+00
      0.739  0.1501E+00  0.4254E+00
      0.839  0.1980E+00  0.4417E+00
      0.940  0.1318E+00  0.4586E+00
      1.041  0.6179E+00  0.4654E+00
      1.141  0.3126E+00  0.4990E+00
      1.242  0.0000E+00  0.5000E+00
      1.343  0.0000E+00  0.5000E+00
      1.444  0.0000E+00  0.5000E+00
      1.544  0.0000E+00  0.5000E+00
      1.645  0.0000E+00  0.5000E+00
      1.746  0.0000E+00  0.5000E+00
      1.847  0.0000E+00  0.5000E+00
      1.947  0.0000E+00  0.5000E+00
      2.048  0.0000E+00  0.5000E+00
      2.149  0.0000E+00  0.5000E+00
      2.249  0.0000E+00  0.5000E+00
      2.350  0.0000E+00  0.5000E+00
      2.451  0.0000E+00  0.5000E+00
      2.552  0.0000E+00  0.5000E+00
      2.652  0.0000E+00  0.5000E+00
      2.753  0.0000E+00  0.5000E+00
      2.854  0.0000E+00  0.5000E+00
      2.955  0.0000E+00  0.5000E+00
      3.055  0.0000E+00  0.5000E+00
      3.156  0.0000E+00  0.5000E+00
