    8    8  100    1
  0.2510127E+02  0.5855921E-09  0.5855921E-09  0.5855921E-09  0.5000000E-15
   1.0000000000000000E-004
  CAR 
 unknown system                          
     40     11     25
 
  0.1262379E-14  0.1262379E-14  0.1262379E-14  0.8000000E-02
    1      -25.063705   1.000000
    2      -25.026359   1.000000
    3      -25.026359   1.000000
    4      -25.026359   1.000000
    5      -10.471910   1.000000
    6      -10.471910   1.000000
    7      -10.471910   1.000000
    8      -10.358324   1.000000
    9       -8.528060   1.000000
   10       -8.528060   1.000000
   11       -8.528060   1.000000
   12       -8.374799   1.000000
   13       -8.374799   1.000000
   14       -8.246418   1.000000
   15       -8.246418   1.000000
   16       -8.246418   1.000000
   17       -7.598898   1.000000
   18       -6.902338   1.000000
   19       -6.902338   1.000000
   20       -6.902338   1.000000
   21        0.437475   0.000000
   22        0.437485   0.000000
   23        0.437560   0.000000
   24        1.138708   0.000000
   25        1.139326   0.000000
 
  0.2000000E+00  0.1262379E-14  0.1262379E-14  0.4800000E-01
    1      -25.060258   1.000000
    2      -25.030069   1.000000
    3      -25.026544   1.000000
    4      -25.026531   1.000000
    5      -10.470076   1.000000
    6      -10.469541   1.000000
    7      -10.460913   1.000000
    8      -10.369134   1.000000
    9       -8.535224   1.000000
   10       -8.518819   1.000000
   11       -8.518768   1.000000
   12       -8.394603   1.000000
   13       -8.365783   1.000000
   14       -8.309008   1.000000
   15       -8.267683   1.000000
   16       -8.261526   1.000000
   17       -7.481394   1.000000
   18       -6.942591   1.000000
   19       -6.896876   1.000000
   20       -6.896614   1.000000
   21        0.495165   0.000000
   22        0.500629   0.000000
   23        0.535963   0.000000
   24        1.112853   0.000000
   25        1.133355   0.000000
 
  0.4000000E+00  0.1262379E-14  0.1262379E-14  0.4800000E-01
    1      -25.050899   1.000000
    2      -25.039364   1.000000
    3      -25.026575   1.000000
    4      -25.026566   1.000000
    5      -10.466469   1.000000
    6      -10.465947   1.000000
    7      -10.432146   1.000000
    8      -10.397181   1.000000
    9       -8.539820   1.000000
   10       -8.521211   1.000000
   11       -8.488798   1.000000
   12       -8.441242   1.000000
   13       -8.357520   1.000000
   14       -8.338454   1.000000
   15       -8.318709   1.000000
   16       -8.298410   1.000000
   17       -7.259731   1.000000
   18       -7.064291   1.000000
   19       -6.887639   1.000000
   20       -6.887476   1.000000
   21        0.611681   0.000000
   22        0.619922   0.000000
   23        0.790905   0.000000
   24        1.047649   0.000000
   25        1.065812   0.000000
 
  0.2000000E+00  0.2000000E+00  0.1262379E-14  0.9600000E-01
    1      -25.056986   1.000000
    2      -25.029680   1.000000
    3      -25.029654   1.000000
    4      -25.026830   1.000000
    5      -10.469045   1.000000
    6      -10.461322   1.000000
    7      -10.459836   1.000000
    8      -10.379629   1.000000
    9       -8.554836   1.000000
   10       -8.528497   1.000000
   11       -8.477975   1.000000
   12       -8.399125   1.000000
   13       -8.368810   1.000000
   14       -8.364922   1.000000
   15       -8.274387   1.000000
   16       -8.256086   1.000000
   17       -7.399048   1.000000
   18       -6.935530   1.000000
   19       -6.935140   1.000000
   20       -6.898117   1.000000
   21        0.547009   0.000000
   22        0.592847   0.000000
   23        0.595890   0.000000
   24        1.110109   0.000000
   25        1.156094   0.000000
 
  0.4000000E+00  0.2000000E+00  0.1262379E-14  0.9600000E-01
    1      -25.048540   1.000000
    2      -25.038056   1.000000
    3      -25.028825   1.000000
    4      -25.027742   1.000000
    5      -10.464891   1.000000
    6      -10.462407   1.000000
    7      -10.436922   1.000000
    8      -10.406224   1.000000
    9       -8.560428   1.000000
   10       -8.548567   1.000000
   11       -8.419387   1.000000
   12       -8.418831   1.000000
   13       -8.415457   1.000000
   14       -8.372598   1.000000
   15       -8.293573   1.000000
   16       -8.275359   1.000000
   17       -7.221136   1.000000
   18       -7.048709   1.000000
   19       -6.919173   1.000000
   20       -6.905416   1.000000
   21        0.668901   0.000000
   22        0.696322   0.000000
   23        0.829351   0.000000
   24        1.044579   0.000000
   25        1.073558   0.000000
 
 -0.2000000E+00  0.4000000E+00  0.1262379E-14  0.9600000E-01
    1      -25.048525   1.000000
    2      -25.038121   1.000000
    3      -25.028825   1.000000
    4      -25.027691   1.000000
    5      -10.465596   1.000000
    6      -10.460988   1.000000
    7      -10.437573   1.000000
    8      -10.406336   1.000000
    9       -8.556835   1.000000
   10       -8.510573   1.000000
   11       -8.500063   1.000000
   12       -8.449010   1.000000
   13       -8.357730   1.000000
   14       -8.335687   1.000000
   15       -8.298408   1.000000
   16       -8.295849   1.000000
   17       -7.221082   1.000000
   18       -7.048540   1.000000
   19       -6.919678   1.000000
   20       -6.905132   1.000000
   21        0.662569   0.000000
   22        0.697864   0.000000
   23        0.829849   0.000000
   24        1.043032   0.000000
   25        1.084440   0.000000
 
  0.4000000E+00  0.4000000E+00  0.1262379E-14  0.9600000E-01
    1      -25.042378   1.000000
    2      -25.034873   1.000000
    3      -25.034861   1.000000
    4      -25.030889   1.000000
    5      -10.459460   1.000000
    6      -10.449179   1.000000
    7      -10.448380   1.000000
    8      -10.427693   1.000000
    9       -8.557433   1.000000
   10       -8.530626   1.000000
   11       -8.499840   1.000000
   12       -8.474202   1.000000
   13       -8.337871   1.000000
   14       -8.328158   1.000000
   15       -8.293088   1.000000
   16       -8.283588   1.000000
   17       -7.122078   1.000000
   18       -7.006558   1.000000
   19       -7.006279   1.000000
   20       -6.951672   1.000000
   21        0.799697   0.000000
   22        0.880653   0.000000
   23        0.886078   0.000000
   24        1.061311   0.000000
   25        1.086833   0.000000
 
  0.2000000E+00  0.2000000E+00  0.2000000E+00  0.6400000E-01
    1      -25.054096   1.000000
    2      -25.029704   1.000000
    3      -25.029704   1.000000
    4      -25.029612   1.000000
    5      -10.464355   1.000000
    6      -10.464355   1.000000
    7      -10.456668   1.000000
    8      -10.390126   1.000000
    9       -8.576538   1.000000
   10       -8.491052   1.000000
   11       -8.491052   1.000000
   12       -8.413268   1.000000
   13       -8.376990   1.000000
   14       -8.376990   1.000000
   15       -8.259931   1.000000
   16       -8.259931   1.000000
   17       -7.338602   1.000000
   18       -6.939827   1.000000
   19       -6.939827   1.000000
   20       -6.927310   1.000000
   21        0.602299   0.000000
   22        0.660387   0.000000
   23        0.660578   0.000000
   24        1.089271   0.000000
   25        1.127603   0.000000
 
  0.4000000E+00  0.2000000E+00  0.2000000E+00  0.1920000E+00
    1      -25.046504   1.000000
    2      -25.037174   1.000000
    3      -25.029698   1.000000
    4      -25.029674   1.000000
    5      -10.464540   1.000000
    6      -10.461848   1.000000
    7      -10.442527   1.000000
    8      -10.415673   1.000000
    9       -8.571951   1.000000
   10       -8.530477   1.000000
   11       -8.469163   1.000000
   12       -8.451494   1.000000
   13       -8.364226   1.000000
   14       -8.344689   1.000000
   15       -8.276650   1.000000
   16       -8.271032   1.000000
   17       -7.194690   1.000000
   18       -7.042175   1.000000
   19       -6.939030   1.000000
   20       -6.933596   1.000000
   21        0.715793   0.000000
   22        0.758865   0.000000
   23        0.865382   0.000000
   24        1.039382   0.000000
   25        1.125681   0.000000
 
  0.4000000E+00  0.4000000E+00  0.2000000E+00  0.1920000E+00
    1      -25.041238   1.000000
    2      -25.034832   1.000000
    3      -25.034813   1.000000
    4      -25.031933   1.000000
    5      -10.462388   1.000000
    6      -10.456045   1.000000
    7      -10.452554   1.000000
    8      -10.436398   1.000000
    9       -8.561061   1.000000
   10       -8.522517   1.000000
   11       -8.510566   1.000000
   12       -8.486593   1.000000
   13       -8.317181   1.000000
   14       -8.307343   1.000000
   15       -8.270742   1.000000
   16       -8.265318   1.000000
   17       -7.118686   1.000000
   18       -7.020902   1.000000
   19       -7.015881   1.000000
   20       -6.977161   1.000000
   21        0.831137   0.000000
   22        0.909097   0.000000
   23        0.925446   0.000000
   24        1.025581   0.000000
   25        1.109207   0.000000
 
  0.4000000E+00  0.4000000E+00  0.4000000E+00  0.6400000E-01
    1      -25.038172   1.000000
    2      -25.034691   1.000000
    3      -25.034691   1.000000
    4      -25.034580   1.000000
    5      -10.464283   1.000000
    6      -10.464283   1.000000
    7      -10.461509   1.000000
    8      -10.453557   1.000000
    9       -8.549012   1.000000
   10       -8.519165   1.000000
   11       -8.519165   1.000000
   12       -8.519071   1.000000
   13       -8.269617   1.000000
   14       -8.269617   1.000000
   15       -8.245802   1.000000
   16       -8.245802   1.000000
   17       -7.094265   1.000000
   18       -7.039669   1.000000
   19       -7.039669   1.000000
   20       -7.034718   1.000000
   21        0.895706   0.000000
   22        0.949811   0.000000
   23        0.956894   0.000000
   24        1.051694   0.000000
   25        1.097042   0.000000
