 running on    1 total cores
 distrk:  each k-point on    1 cores,    1 groups
 distr:  one band on    1 cores,    1 groups
 OpenACC runtime initialized ...    1 GPUs detected
 vasp.6.2.0 18Jan21 (build Feb 25 2021 07:51:20) complex                         
 POSCAR found type information on POSCAR N 
 POSCAR found :  1 types and       8 ions
 scaLAPACK will be used selectively (only on CPU)
 LDA part: xc-table for Pade appr. of Perdew
 POSCAR, INCAR and KPOINTS ok, starting setup
 FFT: planning ...
 WAVECAR not read
 entering main loop
       N       E                     dE             d eps       ncg     rms          rms(c)
DAV:   1     0.286255462019E+03    0.28626E+03   -0.17618E+04   550   0.129E+03
DAV:   2    -0.406884554275E+02   -0.32694E+03   -0.32343E+03   786   0.302E+02
DAV:   3    -0.694377172091E+02   -0.28749E+02   -0.28683E+02   605   0.102E+02
DAV:   4    -0.698530370970E+02   -0.41532E+00   -0.41498E+00   746   0.137E+01
DAV:   5    -0.698664801299E+02   -0.13443E-01   -0.13441E-01   807   0.196E+00    0.157E+01
RMM:   6    -0.672082861651E+02    0.26582E+01   -0.35392E+00   550   0.106E+01    0.891E+00
RMM:   7    -0.666535049816E+02    0.55478E+00   -0.47866E+00   550   0.115E+01    0.228E+00
RMM:   8    -0.666629301047E+02   -0.94251E-02   -0.95591E-01   550   0.667E+00    0.113E+00
RMM:   9    -0.666177718999E+02    0.45158E-01   -0.14728E-01   550   0.291E+00    0.123E-01
RMM:  10    -0.666211394766E+02   -0.33676E-02   -0.34723E-02   558   0.101E+00    0.179E-01
RMM:  11    -0.666213221737E+02   -0.18270E-03   -0.39410E-03   557   0.392E-01    0.177E-01
RMM:  12    -0.666223991809E+02   -0.10770E-02   -0.16389E-02   553   0.700E-01    0.209E-01
RMM:  13    -0.666222202346E+02    0.17895E-03   -0.12554E-03   510   0.281E-01    0.208E-01
RMM:  14    -0.666209597061E+02    0.12605E-02   -0.15678E-03   550   0.224E-01    0.912E-02
RMM:  15    -0.666209517722E+02    0.79339E-05   -0.41772E-03   559   0.318E-01    0.683E-02
RMM:  16    -0.666207961624E+02    0.15561E-03   -0.58106E-04   506   0.176E-01    0.135E-02
RMM:  17    -0.666208014314E+02   -0.52690E-05   -0.37492E-05   330   0.399E-02
   1 F= -.66620801E+02 E0= -.66620801E+02  d E =-.666208E+02
 curvature:   0.00 expect dE= 0.000E+00 dE for cont linesearch  0.000E+00
 trial: gam= 0.00000 g(F)=  0.163E-03 g(S)=  0.156E-03 ort = 0.000E+00 (trialstep = 0.100E+01)
 search vector abs. value=  0.319E-03
 bond charge predicted
       N       E                     dE             d eps       ncg     rms          rms(c)
DAV:   1    -0.666215088519E+02   -0.71269E-03   -0.66131E-02   748   0.177E+00    0.210E-01
RMM:   2    -0.666205018238E+02    0.10070E-02   -0.28161E-03   550   0.338E-01    0.885E-02
RMM:   3    -0.666203498675E+02    0.15196E-03   -0.19684E-03   550   0.244E-01    0.335E-02
RMM:   4    -0.666203631573E+02   -0.13290E-04   -0.13801E-04   333   0.948E-02
   2 F= -.66620363E+02 E0= -.66620363E+02  d E =0.438274E-03
 trial-energy change:    0.000438  1 .order    0.000301   -0.000319    0.000921
 step:   0.2572(harm=  0.2572)  dis= 0.00015  next Energy=   -66.620842 (dE=-0.410E-04)
 bond charge predicted
       N       E                     dE             d eps       ncg     rms          rms(c)
DAV:   1    -0.666212593030E+02   -0.90944E-03   -0.36287E-02   661   0.131E+00    0.138E-01
RMM:   2    -0.666208591285E+02    0.40017E-03   -0.12656E-03   550   0.233E-01    0.588E-02
RMM:   3    -0.666207948703E+02    0.64258E-04   -0.86589E-04   550   0.165E-01
   3 F= -.66620795E+02 E0= -.66620795E+02  d E =0.656109E-05
 curvature:  -0.13 expect dE=-0.977E-04 dE for cont linesearch -0.976E-05
 trial: gam= 0.00000 g(F)=  0.600E-03 g(S)=  0.159E-03 ort =-0.156E-03 (trialstep = 0.358E+00)
 search vector abs. value=  0.759E-03
 reached required accuracy - stopping structural energy minimisation
