<?xml version="1.0" encoding="ISO-8859-1"?>
<modeling>
 <generator>
  <i name="program" type="string">vasp </i>
  <i name="version" type="string">6.2.0  </i>
  <i name="subversion" type="string">18Jan21 (build Feb 25 2021 07:51:20) complex                          parallel </i>
  <i name="platform" type="string">LinuxPGI </i>
  <i name="date" type="string">2021 05 17 </i>
  <i name="time" type="string">14:54:48 </i>
 </generator>
 <incar>
  <i type="string" name="PREC">Normal</i>
  <i type="string" name="ALGO">Fast</i>
  <i type="int" name="IBRION">     2</i>
  <i name="EDIFF">      0.00010000</i>
  <i type="int" name="NSW">   100</i>
  <i type="int" name="ISIF">     3</i>
  <i name="ENCUT">    500.00000000</i>
  <i type="int" name="ISMEAR">    -5</i>
  <i name="SIGMA">      0.20000000</i>
  <i type="logical" name="LWAVE"> F  </i>
  <i type="logical" name="LCHARG"> F  </i>
 </incar>
 <primitive_cell>
  <structure name="primitive_cell" >
   <crystal>
    <varray name="basis" >
     <v>       5.85592100      -0.00000000      -0.00000000 </v>
     <v>       0.00000000       5.85592100      -0.00000000 </v>
     <v>       0.00000000       0.00000000       5.85592100 </v>
    </varray>
    <i name="volume">    200.81013475 </i>
    <varray name="rec_basis" >
     <v>       0.17076733      -0.00000000       0.00000000 </v>
     <v>       0.00000000       0.17076733      -0.00000000 </v>
     <v>       0.00000000       0.00000000       0.17076733 </v>
    </varray>
   </crystal>
   <varray name="positions" >
    <v>       0.55486900       0.44513100       0.94513100 </v>
    <v>       0.44513100       0.55486900       0.05486900 </v>
    <v>       0.94513100       0.55486900       0.44513100 </v>
    <v>       0.05486900       0.44513100       0.55486900 </v>
    <v>       0.05486900       0.05486900       0.05486900 </v>
    <v>       0.94513100       0.94513100       0.94513100 </v>
    <v>       0.44513100       0.94513100       0.55486900 </v>
    <v>       0.55486900       0.05486900       0.44513100 </v>
   </varray>
  </structure>
  <varray name="primitive_index" >
   <v type="int" >        1 </v>
   <v type="int" >        2 </v>
   <v type="int" >        3 </v>
   <v type="int" >        4 </v>
   <v type="int" >        5 </v>
   <v type="int" >        6 </v>
   <v type="int" >        7 </v>
   <v type="int" >        8 </v>
  </varray>
 </primitive_cell>
 <kpoints>
  <generation param="Auto">
   <i name="subdivisionlength">     30.00000000 </i>
   <v type="int" name="divisions">       5        5        5 </v>
   <v name="usershift">      0.00000000       0.00000000       0.00000000 </v>
   <v name="genvec1">      0.20000000       0.00000000       0.00000000 </v>
   <v name="genvec2">      0.00000000       0.20000000       0.00000000 </v>
   <v name="genvec3">      0.00000000       0.00000000       0.20000000 </v>
   <v name="shift">      0.00000000       0.00000000       0.00000000 </v>
  </generation>
  <varray name="kpointlist" >
   <v>       0.00000000       0.00000000       0.00000000 </v>
   <v>       0.20000000       0.00000000       0.00000000 </v>
   <v>       0.40000000       0.00000000       0.00000000 </v>
   <v>       0.20000000       0.20000000       0.00000000 </v>
   <v>       0.40000000       0.20000000       0.00000000 </v>
   <v>      -0.20000000       0.40000000       0.00000000 </v>
   <v>       0.40000000       0.40000000       0.00000000 </v>
   <v>       0.20000000       0.20000000       0.20000000 </v>
   <v>       0.40000000       0.20000000       0.20000000 </v>
   <v>       0.40000000       0.40000000       0.20000000 </v>
   <v>       0.40000000       0.40000000       0.40000000 </v>
  </varray>
  <varray name="weights" >
   <v>       0.00800000 </v>
   <v>       0.04800000 </v>
   <v>       0.04800000 </v>
   <v>       0.09600000 </v>
   <v>       0.09600000 </v>
   <v>       0.09600000 </v>
   <v>       0.09600000 </v>
   <v>       0.06400000 </v>
   <v>       0.19200000 </v>
   <v>       0.19200000 </v>
   <v>       0.06400000 </v>
  </varray>
  <varray name="tetrahedronlist"  type="int" >
   <v type="int" >       12        1        2        2        4 </v>
   <v type="int" >       12        2        2        4        4 </v>
   <v type="int" >       12        2        4        4        8 </v>
   <v type="int" >        6        2        3        4        5 </v>
   <v type="int" >        6        2        4        4        5 </v>
   <v type="int" >        6        4        4        5        8 </v>
   <v type="int" >       12        3        4        5        6 </v>
   <v type="int" >       24        4        5        6        9 </v>
   <v type="int" >       12        4        5        8        9 </v>
   <v type="int" >        6        3        3        5        6 </v>
   <v type="int" >        6        3        5        5        6 </v>
   <v type="int" >        6        5        5        6        9 </v>
   <v type="int" >        6        3        5        6        6 </v>
   <v type="int" >        6        5        6        6        9 </v>
   <v type="int" >        6        5        6        9        9 </v>
   <v type="int" >        6        2        3        4        6 </v>
   <v type="int" >        6        2        4        4        6 </v>
   <v type="int" >        6        4        4        6        8 </v>
   <v type="int" >       12        4        6        8        9 </v>
   <v type="int" >        6        4        5        7        8 </v>
   <v type="int" >        6        4        6        7        8 </v>
   <v type="int" >        6        6        7        8        9 </v>
   <v type="int" >        6        5        7        8        9 </v>
   <v type="int" >       12        7        8        9       10 </v>
   <v type="int" >        6        5        5        7        9 </v>
   <v type="int" >        6        5        7        7        9 </v>
   <v type="int" >       12        7        7        9       10 </v>
   <v type="int" >        6        5        7        9        9 </v>
   <v type="int" >       12        7        9        9       10 </v>
   <v type="int" >       12        7        9       10       10 </v>
   <v type="int" >       12        5        6        7        9 </v>
   <v type="int" >        6        6        7        9       10 </v>
   <v type="int" >        6        6        8        9        9 </v>
   <v type="int" >       12        6        9        9       10 </v>
   <v type="int" >       12        2        3        4        8 </v>
   <v type="int" >        6        3        4        6        8 </v>
   <v type="int" >        6        3        6        8        9 </v>
   <v type="int" >        6        3        4        5        8 </v>
   <v type="int" >        6        3        5        8        9 </v>
   <v type="int" >        6        6        7        7        9 </v>
   <v type="int" >        6        6        6        7        9 </v>
   <v type="int" >        6        6        7        9        9 </v>
   <v type="int" >       12        7        7        7       10 </v>
   <v type="int" >       12        7        7       10       10 </v>
   <v type="int" >       12        7       10       10       10 </v>
   <v type="int" >        6        6        6        7       10 </v>
   <v type="int" >        6        6        7        7       10 </v>
   <v type="int" >        6        6        7       10       10 </v>
   <v type="int" >        6        6        6        9       10 </v>
   <v type="int" >        6        6        9       10       10 </v>
   <v type="int" >        6        3        3        6        9 </v>
   <v type="int" >        6        3        6        6        9 </v>
   <v type="int" >        6        3        6        9        9 </v>
   <v type="int" >        6        3        3        5        9 </v>
   <v type="int" >        6        3        5        5        9 </v>
   <v type="int" >        6        3        5        9        9 </v>
   <v type="int" >        6        5        7        9       10 </v>
   <v type="int" >       12        5        9        9       10 </v>
   <v type="int" >        6        5        8        9        9 </v>
   <v type="int" >        6        5        7        7       10 </v>
   <v type="int" >        6        5        5        7       10 </v>
   <v type="int" >        6        5        5        9       10 </v>
   <v type="int" >        6        5        7       10       10 </v>
   <v type="int" >        6        5        9       10       10 </v>
   <v type="int" >        6        4        6        7       10 </v>
   <v type="int" >        6        4        5        7       10 </v>
   <v type="int" >        6        4        5        9       10 </v>
   <v type="int" >        6        4        6        9       10 </v>
   <v type="int" >       12        4        8        9       10 </v>
   <v type="int" >        6        2        3        6        9 </v>
   <v type="int" >        6        2        4        6        9 </v>
   <v type="int" >       12        2        4        8        9 </v>
   <v type="int" >        6        2        3        5        9 </v>
   <v type="int" >        6        2        4        5        9 </v>
   <v type="int" >       12        1        2        4        8 </v>
   <v type="int" >       12        8        9        9       10 </v>
   <v type="int" >       18        9        9       10       10 </v>
   <v type="int" >       24        9       10       10       11 </v>
   <v type="int" >       12        9       10       10       10 </v>
   <v type="int" >       24       10       10       10       11 </v>
   <v type="int" >       18       10       10       11       11 </v>
   <v type="int" >       12       10       11       11       11 </v>
   <v type="int" >       12        9        9       10       11 </v>
   <v type="int" >       12        9       10       11       11 </v>
   <v type="int" >       12        8        9       10       11 </v>
   <v type="int" >        6       11       11       11       11 </v>
  </varray>
  <i name="volumeweight">      0.00133333 </i>
 </kpoints>
 <parameters>
  <separator name="general" >
   <i type="string" name="SYSTEM">unknown system</i>
   <i type="logical" name="LCOMPAT"> F  </i>
  </separator>
  <separator name="electronic" >
   <i type="string" name="PREC">normal</i>
   <i name="ENMAX">    500.00000000</i>
   <i name="ENAUG">    627.11200000</i>
   <i name="EDIFF">      0.00010000</i>
   <i type="int" name="IALGO">    68</i>
   <i type="int" name="IWAVPR">    11</i>
   <i type="int" name="NBANDS">    25</i>
   <i type="int" name="NBANDSLOW">    -1</i>
   <i type="int" name="NBANDSHIGH">    -1</i>
   <i name="NELECT">     40.00000000</i>
   <i type="int" name="TURBO">     0</i>
   <i type="int" name="IRESTART">     0</i>
   <i type="int" name="NREBOOT">     0</i>
   <i type="int" name="NMIN">     0</i>
   <i name="EREF">      0.00000000</i>
   <separator name="electronic smearing" >
    <i type="int" name="ISMEAR">    -5</i>
    <i name="SIGMA">      0.20000000</i>
    <i name="KSPACING">      0.50000000</i>
    <i type="logical" name="KGAMMA"> T  </i>
    <i type="logical" name="KBLOWUP"> T  </i>
   </separator>
   <separator name="electronic projectors" >
    <i type="logical" name="LREAL"> F  </i>
    <v name="ROPT">      0.00000000</v>
    <i type="int" name="LMAXPAW">  -100</i>
    <i type="int" name="LMAXMIX">     2</i>
    <i type="logical" name="NLSPLINE"> F  </i>
   </separator>
   <separator name="electronic startup" >
    <i type="int" name="ISTART">     0</i>
    <i type="int" name="ICHARG">     2</i>
    <i type="int" name="INIWAV">     1</i>
   </separator>
   <separator name="electronic spin" >
    <i type="int" name="ISPIN">     1</i>
    <i type="logical" name="LNONCOLLINEAR"> F  </i>
    <v name="MAGMOM">      1.00000000      1.00000000      1.00000000      1.00000000      1.00000000      1.00000000      1.00000000      1.00000000</v>
    <i name="NUPDOWN">     -1.00000000</i>
    <i type="logical" name="LSORBIT"> F  </i>
    <v name="SAXIS">      0.00000000      0.00000000      1.00000000</v>
    <i type="logical" name="LSPIRAL"> F  </i>
    <v name="QSPIRAL">      0.00000000      0.00000000      0.00000000</v>
    <i type="logical" name="LZEROZ"> F  </i>
   </separator>
   <separator name="electronic exchange-correlation" >
    <i type="logical" name="LASPH"> F  </i>
    <i type="logical" name="LMETAGGA"> F  </i>
   </separator>
   <separator name="electronic convergence" >
    <i type="int" name="NELM">    60</i>
    <i type="int" name="NELMDL">    -5</i>
    <i type="int" name="NELMIN">     2</i>
    <i name="ENINI">    500.00000000</i>
    <separator name="electronic convergence detail" >
     <i type="logical" name="LDIAG"> T  </i>
     <i type="logical" name="LSUBROT"> F  </i>
     <i name="WEIMIN">      0.00100000</i>
     <i name="EBREAK">      0.00000100</i>
     <i name="DEPER">      0.30000000</i>
     <i type="int" name="NRMM">     4</i>
     <i name="TIME">      0.40000000</i>
    </separator>
   </separator>
   <separator name="electronic mixer" >
    <i name="AMIX">      0.40000000</i>
    <i name="BMIX">      1.00000000</i>
    <i name="AMIN">      0.10000000</i>
    <i name="AMIX_MAG">      1.60000000</i>
    <i name="BMIX_MAG">      1.00000000</i>
    <separator name="electronic mixer details" >
     <i type="int" name="IMIX">     4</i>
     <i type="logical" name="MIXFIRST"> F  </i>
     <i type="int" name="MAXMIX">   -45</i>
     <i name="WC">    100.00000000</i>
     <i type="int" name="INIMIX">     1</i>
     <i type="int" name="MIXPRE">     1</i>
     <i type="int" name="MREMOVE">     5</i>
    </separator>
   </separator>
   <separator name="electronic dipolcorrection" >
    <i type="logical" name="LDIPOL"> F  </i>
    <i type="logical" name="LMONO"> F  </i>
    <i type="int" name="IDIPOL">     0</i>
    <i name="EPSILON">      1.00000000</i>
    <v name="DIPOL">   -100.00000000   -100.00000000   -100.00000000</v>
    <i name="EFIELD">      0.00000000</i>
   </separator>
  </separator>
  <separator name="grids" >
   <i type="int" name="NGX">    32</i>
   <i type="int" name="NGY">    32</i>
   <i type="int" name="NGZ">    32</i>
   <i type="int" name="NGXF">    64</i>
   <i type="int" name="NGYF">    64</i>
   <i type="int" name="NGZF">    64</i>
   <i type="logical" name="ADDGRID"> F  </i>
  </separator>
  <separator name="ionic" >
   <i type="int" name="NSW">   100</i>
   <i type="int" name="IBRION">     2</i>
   <i type="int" name="MDALGO">     0</i>
   <i type="int" name="ISIF">     3</i>
   <i name="PSTRESS">      0.00000000</i>
   <i name="EDIFFG">      0.00100000</i>
   <i type="int" name="NFREE">     1</i>
   <i name="POTIM">      0.50000000</i>
   <i name="SMASS">     -3.00000000</i>
   <i name="SCALEE">      1.00000000</i>
  </separator>
  <separator name="ionic md" >
   <i name="TEBEG">      0.00010000</i>
   <i name="TEEND">      0.00010000</i>
   <i type="int" name="NBLOCK">     1</i>
   <i type="int" name="KBLOCK">   100</i>
   <i type="int" name="NPACO">   256</i>
   <i name="APACO">     16.00000000</i>
  </separator>
  <separator name="symmetry" >
   <i type="int" name="ISYM">     2</i>
   <i name="SYMPREC">      0.00001000</i>
  </separator>
  <separator name="dos" >
   <i type="int" name="LORBIT">     0</i>
   <v name="RWIGS">     -1.00000000</v>
   <i type="int" name="NEDOS">   301</i>
   <i name="EMIN">     10.00000000</i>
   <i name="EMAX">    -10.00000000</i>
   <i name="EFERMI">      0.00000000</i>
  </separator>
  <separator name="writing" >
   <i type="int" name="NWRITE">     2</i>
   <i type="logical" name="LWAVE"> F  </i>
   <i type="logical" name="LDOWNSAMPLE"> F  </i>
   <i type="logical" name="LCHARG"> F  </i>
   <i type="logical" name="LPARD"> F  </i>
   <i type="logical" name="LVTOT"> F  </i>
   <i type="logical" name="LVHAR"> F  </i>
   <i type="logical" name="LELF"> F  </i>
   <i type="logical" name="LOPTICS"> F  </i>
   <v name="STM">      0.00000000      0.00000000      0.00000000      0.00000000      0.00000000      0.00000000      0.00000000</v>
  </separator>
  <separator name="performance" >
   <i type="int" name="NPAR">     1</i>
   <i type="int" name="NSIM">     4</i>
   <i type="int" name="NBLK">    -1</i>
   <i type="logical" name="LPLANE"> T  </i>
   <i type="logical" name="LSCALAPACK"> T  </i>
   <i type="logical" name="LSCAAWARE"> F  </i>
   <i type="logical" name="LSCALU"> F  </i>
   <i type="logical" name="LASYNC"> F  </i>
   <i type="logical" name="LORBITALREAL"> F  </i>
  </separator>
  <separator name="miscellaneous" >
   <i type="int" name="IDIOT">     3</i>
   <i type="int" name="PHON_NSTRUCT">    -1</i>
   <i type="logical" name="LMUSIC"> F  </i>
   <v name="POMASS">     14.00100000</v>
   <v name="DARWINR">      0.00000000</v>
   <v name="DARWINV">      1.00000000</v>
   <i type="logical" name="LCORR"> T  </i>
  </separator>
  <i type="logical" name="GGA_COMPAT"> T  </i>
  <i type="logical" name="LBERRY"> F  </i>
  <i type="int" name="ICORELEVEL">     0</i>
  <i type="logical" name="LDAU"> F  </i>
  <i type="int" name="I_CONSTRAINED_M">     0</i>
  <separator name="electronic exchange-correlation" >
   <i type="string" name="GGA">--</i>
   <i type="int" name="VOSKOWN">     0</i>
   <i type="logical" name="LHFCALC"> F  </i>
   <i type="string" name="PRECFOCK"></i>
   <i type="logical" name="LSYMGRAD"> F  </i>
   <i type="logical" name="LHFONE"> F  </i>
   <i type="logical" name="LRHFCALC"> F  </i>
   <i type="logical" name="LTHOMAS"> F  </i>
   <i type="logical" name="LMODELHF"> F  </i>
   <i type="logical" name="LFOCKACE"> F  </i>
   <i name="ENCUT4O">     -1.00000000</i>
   <i type="int" name="EXXOEP">     0</i>
   <i type="int" name="FOURORBIT">     0</i>
   <i name="AEXX">      0.00000000</i>
   <i name="HFALPHA">      0.00000000</i>
   <i name="MCALPHA">      0.00000000</i>
   <i name="ALDAX">      1.00000000</i>
   <i name="AGGAX">      1.00000000</i>
   <i name="ALDAC">      1.00000000</i>
   <i name="AGGAC">      1.00000000</i>
   <i type="int" name="NKREDX">     1</i>
   <i type="int" name="NKREDY">     1</i>
   <i type="int" name="NKREDZ">     1</i>
   <i type="logical" name="SHIFTRED"> F  </i>
   <i type="logical" name="ODDONLY"> F  </i>
   <i type="logical" name="EVENONLY"> F  </i>
   <i type="int" name="LMAXFOCK">     0</i>
   <i type="int" name="NMAXFOCKAE">     0</i>
   <i type="logical" name="LFOCKAEDFT"> F  </i>
   <i name="HFSCREEN">      0.00000000</i>
   <i name="HFSCREENC">      0.00000000</i>
   <i type="int" name="NBANDSGWLOW">     0</i>
  </separator>
  <separator name="vdW DFT" >
   <i type="logical" name="LUSE_VDW"> F  </i>
   <i name="Zab_VDW">     -0.84910000</i>
   <i name="PARAM1">      0.12340000</i>
   <i name="PARAM2">      1.00000000</i>
   <i name="PARAM3">      0.00000000</i>
  </separator>
  <separator name="model GW" >
   <i type="int" name="MODEL_GW">     0</i>
   <i name="MODEL_EPS0">     15.06076011</i>
   <i name="MODEL_ALPHA">      1.00000000</i>
  </separator>
  <separator name="linear response parameters" >
   <i type="logical" name="LEPSILON"> F  </i>
   <i type="logical" name="LRPA"> F  </i>
   <i type="logical" name="LNABLA"> F  </i>
   <i type="logical" name="LVEL"> F  </i>
   <i type="int" name="KINTER">     0</i>
   <i name="CSHIFT">      0.10000000</i>
   <i name="OMEGAMAX">     -1.00000000</i>
   <i name="DEG_THRESHOLD">      0.00200000</i>
   <i name="RTIME">     -0.10000000</i>
   <i name="WPLASMAI">      0.00000000</i>
   <v name="DFIELD">      0.00000000      0.00000000      0.00000000</v>
   <v name="WPLASMA">      0.00000000      0.00000000      0.00000000      0.00000000      0.00000000      0.00000000      0.00000000      0.00000000      0.00000000</v>
  </separator>
  <separator name="orbital magnetization" >
   <i type="logical" name="NUCIND"> F  </i>
   <v name="MAGPOS">      0.00000000      0.00000000      0.00000000</v>
   <i type="logical" name="LNICSALL"> T  </i>
   <i type="logical" name="ORBITALMAG"> F  </i>
   <i type="logical" name="LMAGBLOCH"> F  </i>
   <i type="logical" name="LCHIMAG"> F  </i>
   <i type="logical" name="LGAUGE"> T  </i>
   <i type="int" name="MAGATOM">     0</i>
   <v name="MAGDIPOL">      0.00000000      0.00000000      0.00000000</v>
   <v name="AVECCONST">      0.00000000      0.00000000      0.00000000</v>
  </separator>
  <separator name="response functions" >
   <i type="logical" name="LFINITE_TEMPERATURE"> F  </i>
   <i type="logical" name="LADDER"> F  </i>
   <i type="logical" name="LRPAFORCE"> F  </i>
   <i type="logical" name="LFXC"> F  </i>
   <i type="logical" name="LHARTREE"> T  </i>
   <i type="int" name="IBSE">     0</i>
   <v type="int" name="KPOINT">    -1     0     0     0</v>
   <i type="logical" name="LTCTC"> F  </i>
   <i type="logical" name="LTCTE"> F  </i>
   <i type="logical" name="LTETE"> F  </i>
   <i type="logical" name="LTRIPLET"> F  </i>
   <i type="logical" name="LFXCEPS"> F  </i>
   <i type="logical" name="LFXHEG"> F  </i>
   <i type="int" name="NATURALO">     2</i>
   <i type="logical" name="LHOLEGF"> F  </i>
   <i type="logical" name="L2ORDER"> F  </i>
   <i type="logical" name="LDMP1"> F  </i>
   <i type="logical" name="LMP2LT"> F  </i>
   <i type="logical" name="LSMP2LT"> F  </i>
   <i type="logical" name="LGWLF"> F  </i>
   <i name="ENCUTGW">     -2.00000000</i>
   <i name="ENCUTGWSOFT">     -2.00000000</i>
   <i name="ENCUTLF">     -1.00000000</i>
   <i type="logical" name="LESF_SPLINES"> F  </i>
   <i type="int" name="LMAXMP2">    -1</i>
   <i name="SCISSOR">      0.00000000</i>
   <i type="int" name="NOMEGA">     0</i>
   <i type="int" name="NOMEGAR">     0</i>
   <i type="int" name="NBANDSGW">    -1</i>
   <i type="int" name="NBANDSO">    -1</i>
   <i type="int" name="NBANDSV">    -1</i>
   <i type="int" name="NELM">     1</i>
   <i type="int" name="NELMHF">     1</i>
   <i type="int" name="DIM">     3</i>
   <i type="int" name="IESPILON">     4</i>
   <i type="int" name="ANTIRES">     0</i>
   <i name="OMEGAMAX">    -30.00000000</i>
   <i name="OMEGAMIN">    -30.00000000</i>
   <i name="OMEGATL">   -200.00000000</i>
   <i type="int" name="OMEGAGRID">     0</i>
   <i name="CSHIFT">     -0.10000000</i>
   <i type="logical" name="LSELFENERGY"> F  </i>
   <i type="logical" name="LSPECTRAL"> F  </i>
   <i type="logical" name="LSPECTRALGW"> F  </i>
   <i type="logical" name="LSINGLES"> F  </i>
   <i type="logical" name="LFERMIGW"> F  </i>
   <i type="logical" name="ODDONLYGW"> F  </i>
   <i type="logical" name="EVENONLYGW"> F  </i>
   <i type="int" name="NKREDLFX">     1</i>
   <i type="int" name="NKREDLFY">     1</i>
   <i type="int" name="NKREDLFZ">     1</i>
   <i type="int" name="MAXMEM">  2800</i>
   <i type="int" name="TELESCOPE">     0</i>
   <i type="int" name="NTAUPAR">    -1</i>
   <i type="int" name="NOMEGAPAR">    -1</i>
   <i name="DAMP_NEWTON">      0.80000001</i>
   <i name="LAMBDA">      1.00000000</i>
  </separator>
  <separator name="External order field" >
   <i name="OFIELD_KAPPA">      0.00000000</i>
   <v name="OFIELD_K">      0.00000000      0.00000000      0.00000000</v>
   <i name="OFIELD_Q6_NEAR">      0.00000000</i>
   <i name="OFIELD_Q6_FAR">      0.00000000</i>
   <i name="OFIELD_A">      0.00000000</i>
  </separator>
 </parameters>
 <atominfo>
  <atoms>       8 </atoms>
  <types>       1 </types>
  <array name="atoms" >
   <dimension dim="1">ion</dimension>
   <field type="string">element</field>
   <field type="int">atomtype</field>
   <set>
    <rc><c>N </c><c>   1</c></rc>
    <rc><c>N </c><c>   1</c></rc>
    <rc><c>N </c><c>   1</c></rc>
    <rc><c>N </c><c>   1</c></rc>
    <rc><c>N </c><c>   1</c></rc>
    <rc><c>N </c><c>   1</c></rc>
    <rc><c>N </c><c>   1</c></rc>
    <rc><c>N </c><c>   1</c></rc>
   </set>
  </array>
  <array name="atomtypes" >
   <dimension dim="1">type</dimension>
   <field type="int">atomspertype</field>
   <field type="string">element</field>
   <field>mass</field>
   <field>valence</field>
   <field type="string">pseudopotential</field>
   <set>
    <rc><c>   8</c><c>N </c><c>     14.00100000</c><c>      5.00000000</c><c>  PAW_PBE N 08Apr2002                   </c></rc>
   </set>
  </array>
 </atominfo>
 <structure name="initialpos" >
  <crystal>
   <varray name="basis" >
    <v>       5.85592100      -0.00000000      -0.00000000 </v>
    <v>       0.00000000       5.85592100      -0.00000000 </v>
    <v>       0.00000000       0.00000000       5.85592100 </v>
   </varray>
   <i name="volume">    200.81013475 </i>
   <varray name="rec_basis" >
    <v>       0.17076733      -0.00000000       0.00000000 </v>
    <v>       0.00000000       0.17076733      -0.00000000 </v>
    <v>       0.00000000       0.00000000       0.17076733 </v>
   </varray>
  </crystal>
  <varray name="positions" >
   <v>       0.55486900       0.44513100       0.94513100 </v>
   <v>       0.44513100       0.55486900       0.05486900 </v>
   <v>       0.94513100       0.55486900       0.44513100 </v>
   <v>       0.05486900       0.44513100       0.55486900 </v>
   <v>       0.05486900       0.05486900       0.05486900 </v>
   <v>       0.94513100       0.94513100       0.94513100 </v>
   <v>       0.44513100       0.94513100       0.55486900 </v>
   <v>       0.55486900       0.05486900       0.44513100 </v>
  </varray>
 </structure>
 <calculation>
  <scstep>
   <time name="dav">    0.57    0.58</time>
   <time name="total">    0.62    0.63</time>
   <energy>
    <i name="alphaZ">     34.33961502 </i>
    <i name="ewald">   -890.95419016 </i>
    <i name="hartreedc">   -927.92811231 </i>
    <i name="XCdc">    152.15684705 </i>
    <i name="pawpsdc">   1639.46185290 </i>
    <i name="pawaedc">  -1648.98972563 </i>
    <i name="eentropy">      0.00000000 </i>
    <i name="bandstr">   -188.10962054 </i>
    <i name="atom">   2116.27879569 </i>
    <i name="e_fr_energy">    286.25546202 </i>
    <i name="e_wo_entrp">    286.25546202 </i>
    <i name="e_0_energy">    286.25546202 </i>
   </energy>
  </scstep>
  <scstep>
   <time name="dav">    0.73    0.74</time>
   <time name="total">    0.74    0.75</time>
   <energy>
    <i name="e_fr_energy">    -40.68845543 </i>
    <i name="e_wo_entrp">    -40.68845543 </i>
    <i name="e_0_energy">    -40.68845543 </i>
   </energy>
  </scstep>
  <scstep>
   <time name="dav">    0.56    0.57</time>
   <time name="total">    0.57    0.58</time>
   <energy>
    <i name="e_fr_energy">    -69.43771721 </i>
    <i name="e_wo_entrp">    -69.43771721 </i>
    <i name="e_0_energy">    -69.43771721 </i>
   </energy>
  </scstep>
  <scstep>
   <time name="dav">    0.69    0.70</time>
   <time name="total">    0.70    0.71</time>
   <energy>
    <i name="e_fr_energy">    -69.85303710 </i>
    <i name="e_wo_entrp">    -69.85303710 </i>
    <i name="e_0_energy">    -69.85303710 </i>
   </energy>
  </scstep>
  <scstep>
   <time name="dav">    0.75    0.76</time>
   <time name="total">    0.81    0.83</time>
   <energy>
    <i name="e_fr_energy">    -69.86648013 </i>
    <i name="e_wo_entrp">    -69.86648013 </i>
    <i name="e_0_energy">    -69.86648013 </i>
   </energy>
  </scstep>
  <scstep>
   <time name="diag">    0.08    0.08</time>
   <time name="diis">    0.36    0.37</time>
   <time name="orth">    0.01    0.01</time>
   <time name="total">    0.53    0.54</time>
   <energy>
    <i name="e_fr_energy">    -67.20828617 </i>
    <i name="e_wo_entrp">    -67.20828617 </i>
    <i name="e_0_energy">    -67.20828617 </i>
   </energy>
  </scstep>
  <scstep>
   <time name="diag">    0.08    0.08</time>
   <time name="diis">    0.36    0.37</time>
   <time name="orth">    0.01    0.01</time>
   <time name="total">    0.53    0.54</time>
   <energy>
    <i name="e_fr_energy">    -66.65350498 </i>
    <i name="e_wo_entrp">    -66.65350498 </i>
    <i name="e_0_energy">    -66.65350498 </i>
   </energy>
  </scstep>
  <scstep>
   <time name="diag">    0.08    0.08</time>
   <time name="diis">    0.37    0.37</time>
   <time name="orth">    0.01    0.01</time>
   <time name="total">    0.53    0.54</time>
   <energy>
    <i name="e_fr_energy">    -66.66293010 </i>
    <i name="e_wo_entrp">    -66.66293010 </i>
    <i name="e_0_energy">    -66.66293010 </i>
   </energy>
  </scstep>
  <scstep>
   <time name="diag">    0.08    0.08</time>
   <time name="diis">    0.36    0.37</time>
   <time name="orth">    0.01    0.01</time>
   <time name="total">    0.53    0.54</time>
   <energy>
    <i name="e_fr_energy">    -66.61777190 </i>
    <i name="e_wo_entrp">    -66.61777190 </i>
    <i name="e_0_energy">    -66.61777190 </i>
   </energy>
  </scstep>
  <scstep>
   <time name="diag">    0.08    0.08</time>
   <time name="diis">    0.38    0.38</time>
   <time name="orth">    0.01    0.01</time>
   <time name="total">    0.54    0.55</time>
   <energy>
    <i name="e_fr_energy">    -66.62113948 </i>
    <i name="e_wo_entrp">    -66.62113948 </i>
    <i name="e_0_energy">    -66.62113948 </i>
   </energy>
  </scstep>
  <scstep>
   <time name="diag">    0.08    0.08</time>
   <time name="diis">    0.37    0.38</time>
   <time name="orth">    0.01    0.01</time>
   <time name="total">    0.54    0.55</time>
   <energy>
    <i name="e_fr_energy">    -66.62132217 </i>
    <i name="e_wo_entrp">    -66.62132217 </i>
    <i name="e_0_energy">    -66.62132217 </i>
   </energy>
  </scstep>
  <scstep>
   <time name="diag">    0.08    0.08</time>
   <time name="diis">    0.37    0.38</time>
   <time name="orth">    0.01    0.01</time>
   <time name="total">    0.54    0.55</time>
   <energy>
    <i name="e_fr_energy">    -66.62239918 </i>
    <i name="e_wo_entrp">    -66.62239918 </i>
    <i name="e_0_energy">    -66.62239918 </i>
   </energy>
  </scstep>
  <scstep>
   <time name="diag">    0.08    0.08</time>
   <time name="diis">    0.34    0.34</time>
   <time name="orth">    0.01    0.01</time>
   <time name="total">    0.50    0.51</time>
   <energy>
    <i name="e_fr_energy">    -66.62222023 </i>
    <i name="e_wo_entrp">    -66.62222023 </i>
    <i name="e_0_energy">    -66.62222023 </i>
   </energy>
  </scstep>
  <scstep>
   <time name="diag">    0.08    0.08</time>
   <time name="diis">    0.36    0.37</time>
   <time name="orth">    0.01    0.01</time>
   <time name="total">    0.53    0.54</time>
   <energy>
    <i name="e_fr_energy">    -66.62095971 </i>
    <i name="e_wo_entrp">    -66.62095971 </i>
    <i name="e_0_energy">    -66.62095971 </i>
   </energy>
  </scstep>
  <scstep>
   <time name="diag">    0.08    0.08</time>
   <time name="diis">    0.37    0.38</time>
   <time name="orth">    0.01    0.01</time>
   <time name="total">    0.54    0.55</time>
   <energy>
    <i name="e_fr_energy">    -66.62095177 </i>
    <i name="e_wo_entrp">    -66.62095177 </i>
    <i name="e_0_energy">    -66.62095177 </i>
   </energy>
  </scstep>
  <scstep>
   <time name="diag">    0.08    0.08</time>
   <time name="diis">    0.34    0.34</time>
   <time name="orth">    0.01    0.01</time>
   <time name="total">    0.50    0.51</time>
   <energy>
    <i name="e_fr_energy">    -66.62079616 </i>
    <i name="e_wo_entrp">    -66.62079616 </i>
    <i name="e_0_energy">    -66.62079616 </i>
   </energy>
  </scstep>
  <scstep>
   <time name="diag">    0.08    0.08</time>
   <time name="diis">    0.21    0.22</time>
   <time name="orth">    0.01    0.01</time>
   <time name="total">    0.33    0.33</time>
   <energy>
    <i name="alphaZ">     34.33961502 </i>
    <i name="ewald">   -890.95419016 </i>
    <i name="hartreedc">   -997.89561577 </i>
    <i name="XCdc">    156.95011995 </i>
    <i name="pawpsdc">   3945.02683272 </i>
    <i name="pawaedc">  -3955.58135856 </i>
    <i name="eentropy">      0.00000000 </i>
    <i name="bandstr">   -474.78500032 </i>
    <i name="atom">   2116.27879569 </i>
    <i name="e_fr_energy">    -66.62080143 </i>
    <i name="e_wo_entrp">    -66.62080143 </i>
    <i name="e_0_energy">    -66.62080143 </i>
   </energy>
  </scstep>
  <structure>
   <crystal>
    <varray name="basis" >
     <v>       5.85592100      -0.00000000      -0.00000000 </v>
     <v>       0.00000000       5.85592100      -0.00000000 </v>
     <v>       0.00000000       0.00000000       5.85592100 </v>
    </varray>
    <i name="volume">    200.81013475 </i>
    <varray name="rec_basis" >
     <v>       0.17076733      -0.00000000       0.00000000 </v>
     <v>       0.00000000       0.17076733      -0.00000000 </v>
     <v>       0.00000000       0.00000000       0.17076733 </v>
    </varray>
   </crystal>
   <varray name="positions" >
    <v>       0.55486900       0.44513100       0.94513100 </v>
    <v>       0.44513100       0.55486900       0.05486900 </v>
    <v>       0.94513100       0.55486900       0.44513100 </v>
    <v>       0.05486900       0.44513100       0.55486900 </v>
    <v>       0.05486900       0.05486900       0.05486900 </v>
    <v>       0.94513100       0.94513100       0.94513100 </v>
    <v>       0.44513100       0.94513100       0.55486900 </v>
    <v>       0.55486900       0.05486900       0.44513100 </v>
   </varray>
  </structure>
  <varray name="forces" >
   <v>       0.01187334      -0.01187334      -0.01187334 </v>
   <v>      -0.01187334       0.01187334       0.01187334 </v>
   <v>      -0.01187334       0.01187334      -0.01187334 </v>
   <v>       0.01187334      -0.01187334       0.01187334 </v>
   <v>       0.01187334       0.01187334       0.01187334 </v>
   <v>      -0.01187334      -0.01187334      -0.01187334 </v>
   <v>      -0.01187334      -0.01187334       0.01187334 </v>
   <v>       0.01187334       0.01187334      -0.01187334 </v>
  </varray>
  <varray name="stress" >
   <v>      -0.74019730       0.00000000      -0.00000000 </v>
   <v>      -0.00000000      -0.74019730       0.00000000 </v>
   <v>       0.00000000      -0.00000000      -0.74019730 </v>
  </varray>
  <energy>
   <i name="e_fr_energy">    -66.62080143 </i>
   <i name="e_wo_entrp">    -66.62080143 </i>
   <i name="e_0_energy">    -66.62080143 </i>
  </energy>
  <time name="totalsc">   10.54   10.75</time>
 </calculation>
 <calculation>
  <scstep>
   <time name="dav">    0.68    0.70</time>
   <time name="total">    0.76    0.78</time>
   <energy>
    <i name="alphaZ">     34.39731379 </i>
    <i name="ewald">   -893.52064714 </i>
    <i name="hartreedc">   -997.37704006 </i>
    <i name="XCdc">    156.99774057 </i>
    <i name="pawpsdc">   3945.35389612 </i>
    <i name="pawaedc">  -3955.90853949 </i>
    <i name="eentropy">      0.00000000 </i>
    <i name="bandstr">   -472.84302833 </i>
    <i name="atom">   2116.27879569 </i>
    <i name="e_fr_energy">    -66.62150885 </i>
    <i name="e_wo_entrp">    -66.62150885 </i>
    <i name="e_0_energy">    -66.62150885 </i>
   </energy>
  </scstep>
  <scstep>
   <time name="diag">    0.08    0.08</time>
   <time name="diis">    0.36    0.37</time>
   <time name="orth">    0.01    0.01</time>
   <time name="total">    0.53    0.54</time>
   <energy>
    <i name="e_fr_energy">    -66.62050182 </i>
    <i name="e_wo_entrp">    -66.62050182 </i>
    <i name="e_0_energy">    -66.62050182 </i>
   </energy>
  </scstep>
  <scstep>
   <time name="diag">    0.08    0.08</time>
   <time name="diis">    0.36    0.37</time>
   <time name="orth">    0.01    0.01</time>
   <time name="total">    0.53    0.54</time>
   <energy>
    <i name="e_fr_energy">    -66.62034987 </i>
    <i name="e_wo_entrp">    -66.62034987 </i>
    <i name="e_0_energy">    -66.62034987 </i>
   </energy>
  </scstep>
  <scstep>
   <time name="diag">    0.08    0.08</time>
   <time name="diis">    0.22    0.22</time>
   <time name="orth">    0.01    0.01</time>
   <time name="total">    0.33    0.34</time>
   <energy>
    <i name="alphaZ">     34.39731379 </i>
    <i name="ewald">   -893.52064714 </i>
    <i name="hartreedc">   -995.80129713 </i>
    <i name="XCdc">    156.89533795 </i>
    <i name="pawpsdc">   3939.83906591 </i>
    <i name="pawaedc">  -3950.38318920 </i>
    <i name="eentropy">      0.00000000 </i>
    <i name="bandstr">   -474.32574303 </i>
    <i name="atom">   2116.27879569 </i>
    <i name="e_fr_energy">    -66.62036316 </i>
    <i name="e_wo_entrp">    -66.62036316 </i>
    <i name="e_0_energy">    -66.62036316 </i>
   </energy>
  </scstep>
  <structure>
   <crystal>
    <varray name="basis" >
     <v>       5.85264489       0.00000000      -0.00000000 </v>
     <v>      -0.00000000       5.85264489       0.00000000 </v>
     <v>       0.00000000      -0.00000000       5.85264489 </v>
    </varray>
    <i name="volume">    200.47329166 </i>
    <varray name="rec_basis" >
     <v>       0.17086292       0.00000000      -0.00000000 </v>
     <v>      -0.00000000       0.17086292       0.00000000 </v>
     <v>       0.00000000      -0.00000000       0.17086292 </v>
    </varray>
   </crystal>
   <varray name="positions" >
    <v>       0.55496682       0.44503318       0.94503318 </v>
    <v>       0.44503318       0.55496682       0.05496682 </v>
    <v>       0.94503318       0.55496682       0.44503318 </v>
    <v>       0.05496682       0.44503318       0.55496682 </v>
    <v>       0.05496682       0.05496682       0.05496682 </v>
    <v>       0.94503318       0.94503318       0.94503318 </v>
    <v>       0.44503318       0.94503318       0.55496682 </v>
    <v>       0.55496682       0.05496682       0.44503318 </v>
   </varray>
  </structure>
  <varray name="forces" >
   <v>      -0.11010001       0.11010001       0.11010001 </v>
   <v>       0.11010001      -0.11010001      -0.11010001 </v>
   <v>       0.11010001      -0.11010001       0.11010001 </v>
   <v>      -0.11010001       0.11010001      -0.11010001 </v>
   <v>      -0.11010001      -0.11010001      -0.11010001 </v>
   <v>       0.11010001       0.11010001       0.11010001 </v>
   <v>       0.11010001       0.11010001      -0.11010001 </v>
   <v>      -0.11010001      -0.11010001       0.11010001 </v>
  </varray>
  <varray name="stress" >
   <v>      -2.82151276       0.00000000      -0.00000000 </v>
   <v>       0.00000000      -2.82151276      -0.00000000 </v>
   <v>       0.00000000      -0.00000000      -2.82151276 </v>
  </varray>
  <energy>
   <i name="e_fr_energy">    -66.62036316 </i>
   <i name="e_wo_entrp">    -66.62036316 </i>
   <i name="e_0_energy">    -66.62036316 </i>
  </energy>
  <time name="totalsc">    3.09    3.15</time>
 </calculation>
 <calculation>
  <scstep>
   <time name="dav">    0.62    0.63</time>
   <time name="total">    0.69    0.70</time>
   <energy>
    <i name="alphaZ">     34.35444338 </i>
    <i name="ewald">   -891.61398788 </i>
    <i name="hartreedc">   -996.26955214 </i>
    <i name="XCdc">    156.86586140 </i>
    <i name="pawpsdc">   3937.24858500 </i>
    <i name="pawaedc">  -3947.79220405 </i>
    <i name="eentropy">      0.00000000 </i>
    <i name="bandstr">   -475.69320070 </i>
    <i name="atom">   2116.27879569 </i>
    <i name="e_fr_energy">    -66.62125930 </i>
    <i name="e_wo_entrp">    -66.62125930 </i>
    <i name="e_0_energy">    -66.62125930 </i>
   </energy>
  </scstep>
  <scstep>
   <time name="diag">    0.08    0.08</time>
   <time name="diis">    0.36    0.37</time>
   <time name="orth">    0.01    0.01</time>
   <time name="total">    0.53    0.54</time>
   <energy>
    <i name="e_fr_energy">    -66.62085913 </i>
    <i name="e_wo_entrp">    -66.62085913 </i>
    <i name="e_0_energy">    -66.62085913 </i>
   </energy>
  </scstep>
  <scstep>
   <time name="diag">    0.08    0.08</time>
   <time name="diis">    0.36    0.37</time>
   <time name="orth">    0.01    0.01</time>
   <time name="total">    0.48    0.49</time>
   <energy>
    <i name="alphaZ">     34.35444338 </i>
    <i name="ewald">   -891.61398788 </i>
    <i name="hartreedc">   -997.39643969 </i>
    <i name="XCdc">    156.93865323 </i>
    <i name="pawpsdc">   3938.31688339 </i>
    <i name="pawaedc">  -3948.86778185 </i>
    <i name="eentropy">      0.00000000 </i>
    <i name="bandstr">   -474.63136114 </i>
    <i name="atom">   2116.27879569 </i>
    <i name="e_fr_energy">    -66.62079487 </i>
    <i name="e_wo_entrp">    -66.62079487 </i>
    <i name="e_0_energy">    -66.62079487 </i>
   </energy>
  </scstep>
  <structure>
   <crystal>
    <varray name="basis" >
     <v>       5.85507835       0.00000000      -0.00000000 </v>
     <v>      -0.00000000       5.85507835       0.00000000 </v>
     <v>       0.00000000      -0.00000000       5.85507835 </v>
    </varray>
    <i name="volume">    200.72345938 </i>
    <varray name="rec_basis" >
     <v>       0.17079191       0.00000000      -0.00000000 </v>
     <v>      -0.00000000       0.17079191       0.00000000 </v>
     <v>       0.00000000      -0.00000000       0.17079191 </v>
    </varray>
   </crystal>
   <varray name="positions" >
    <v>       0.55489412       0.44510588       0.94510588 </v>
    <v>       0.44510588       0.55489412       0.05489412 </v>
    <v>       0.94510588       0.55489412       0.44510588 </v>
    <v>       0.05489412       0.44510588       0.55489412 </v>
    <v>       0.05489412       0.05489412       0.05489412 </v>
    <v>       0.94510588       0.94510588       0.94510588 </v>
    <v>       0.44510588       0.94510588       0.55489412 </v>
    <v>       0.55489412       0.05489412       0.44510588 </v>
   </varray>
  </structure>
  <varray name="forces" >
   <v>      -0.02276946       0.02276946       0.02276946 </v>
   <v>       0.02276946      -0.02276946      -0.02276946 </v>
   <v>       0.02276946      -0.02276946       0.02276946 </v>
   <v>      -0.02276946       0.02276946      -0.02276946 </v>
   <v>      -0.02276946      -0.02276946      -0.02276946 </v>
   <v>       0.02276946       0.02276946       0.02276946 </v>
   <v>       0.02276946       0.02276946      -0.02276946 </v>
   <v>      -0.02276946      -0.02276946       0.02276946 </v>
  </varray>
  <varray name="stress" >
   <v>      -0.74859226       0.00000000       0.00000000 </v>
   <v>       0.00000000      -0.74859226       0.00000000 </v>
   <v>      -0.00000000      -0.00000000      -0.74859226 </v>
  </varray>
  <energy>
   <i name="e_fr_energy">    -66.62079487 </i>
   <i name="e_wo_entrp">    -66.62079487 </i>
   <i name="e_0_energy">    -66.62079487 </i>
  </energy>
  <time name="totalsc">    2.56    2.61</time>
  <eigenvalues>
   <array>
    <dimension dim="1">band</dimension>
    <dimension dim="2">kpoint</dimension>
    <dimension dim="3">spin</dimension>
    <field>eigene</field>
    <field>occ</field>
    <set>
     <set comment="spin 1">
      <set comment="kpoint 1">
       <r>  -25.0637    1.0000 </r>
       <r>  -25.0264    1.0000 </r>
       <r>  -25.0264    1.0000 </r>
       <r>  -25.0264    1.0000 </r>
       <r>  -10.4719    1.0000 </r>
       <r>  -10.4719    1.0000 </r>
       <r>  -10.4719    1.0000 </r>
       <r>  -10.3583    1.0000 </r>
       <r>   -8.5281    1.0000 </r>
       <r>   -8.5281    1.0000 </r>
       <r>   -8.5281    1.0000 </r>
       <r>   -8.3748    1.0000 </r>
       <r>   -8.3748    1.0000 </r>
       <r>   -8.2464    1.0000 </r>
       <r>   -8.2464    1.0000 </r>
       <r>   -8.2464    1.0000 </r>
       <r>   -7.5989    1.0000 </r>
       <r>   -6.9023    1.0000 </r>
       <r>   -6.9023    1.0000 </r>
       <r>   -6.9023    1.0000 </r>
       <r>    0.4375    0.0000 </r>
       <r>    0.4375    0.0000 </r>
       <r>    0.4376    0.0000 </r>
       <r>    1.1387    0.0000 </r>
       <r>    1.1393    0.0000 </r>
      </set>
      <set comment="kpoint 2">
       <r>  -25.0603    1.0000 </r>
       <r>  -25.0301    1.0000 </r>
       <r>  -25.0265    1.0000 </r>
       <r>  -25.0265    1.0000 </r>
       <r>  -10.4701    1.0000 </r>
       <r>  -10.4695    1.0000 </r>
       <r>  -10.4609    1.0000 </r>
       <r>  -10.3691    1.0000 </r>
       <r>   -8.5352    1.0000 </r>
       <r>   -8.5188    1.0000 </r>
       <r>   -8.5188    1.0000 </r>
       <r>   -8.3946    1.0000 </r>
       <r>   -8.3658    1.0000 </r>
       <r>   -8.3090    1.0000 </r>
       <r>   -8.2677    1.0000 </r>
       <r>   -8.2615    1.0000 </r>
       <r>   -7.4814    1.0000 </r>
       <r>   -6.9426    1.0000 </r>
       <r>   -6.8969    1.0000 </r>
       <r>   -6.8966    1.0000 </r>
       <r>    0.4952    0.0000 </r>
       <r>    0.5006    0.0000 </r>
       <r>    0.5360    0.0000 </r>
       <r>    1.1129    0.0000 </r>
       <r>    1.1334    0.0000 </r>
      </set>
      <set comment="kpoint 3">
       <r>  -25.0509    1.0000 </r>
       <r>  -25.0394    1.0000 </r>
       <r>  -25.0266    1.0000 </r>
       <r>  -25.0266    1.0000 </r>
       <r>  -10.4665    1.0000 </r>
       <r>  -10.4659    1.0000 </r>
       <r>  -10.4321    1.0000 </r>
       <r>  -10.3972    1.0000 </r>
       <r>   -8.5398    1.0000 </r>
       <r>   -8.5212    1.0000 </r>
       <r>   -8.4888    1.0000 </r>
       <r>   -8.4412    1.0000 </r>
       <r>   -8.3575    1.0000 </r>
       <r>   -8.3385    1.0000 </r>
       <r>   -8.3187    1.0000 </r>
       <r>   -8.2984    1.0000 </r>
       <r>   -7.2597    1.0000 </r>
       <r>   -7.0643    1.0000 </r>
       <r>   -6.8876    1.0000 </r>
       <r>   -6.8875    1.0000 </r>
       <r>    0.6117    0.0000 </r>
       <r>    0.6199    0.0000 </r>
       <r>    0.7909    0.0000 </r>
       <r>    1.0476    0.0000 </r>
       <r>    1.0658    0.0000 </r>
      </set>
      <set comment="kpoint 4">
       <r>  -25.0570    1.0000 </r>
       <r>  -25.0297    1.0000 </r>
       <r>  -25.0297    1.0000 </r>
       <r>  -25.0268    1.0000 </r>
       <r>  -10.4690    1.0000 </r>
       <r>  -10.4613    1.0000 </r>
       <r>  -10.4598    1.0000 </r>
       <r>  -10.3796    1.0000 </r>
       <r>   -8.5548    1.0000 </r>
       <r>   -8.5285    1.0000 </r>
       <r>   -8.4780    1.0000 </r>
       <r>   -8.3991    1.0000 </r>
       <r>   -8.3688    1.0000 </r>
       <r>   -8.3649    1.0000 </r>
       <r>   -8.2744    1.0000 </r>
       <r>   -8.2561    1.0000 </r>
       <r>   -7.3990    1.0000 </r>
       <r>   -6.9355    1.0000 </r>
       <r>   -6.9351    1.0000 </r>
       <r>   -6.8981    1.0000 </r>
       <r>    0.5470    0.0000 </r>
       <r>    0.5928    0.0000 </r>
       <r>    0.5959    0.0000 </r>
       <r>    1.1101    0.0000 </r>
       <r>    1.1561    0.0000 </r>
      </set>
      <set comment="kpoint 5">
       <r>  -25.0485    1.0000 </r>
       <r>  -25.0381    1.0000 </r>
       <r>  -25.0288    1.0000 </r>
       <r>  -25.0277    1.0000 </r>
       <r>  -10.4649    1.0000 </r>
       <r>  -10.4624    1.0000 </r>
       <r>  -10.4369    1.0000 </r>
       <r>  -10.4062    1.0000 </r>
       <r>   -8.5604    1.0000 </r>
       <r>   -8.5486    1.0000 </r>
       <r>   -8.4194    1.0000 </r>
       <r>   -8.4188    1.0000 </r>
       <r>   -8.4155    1.0000 </r>
       <r>   -8.3726    1.0000 </r>
       <r>   -8.2936    1.0000 </r>
       <r>   -8.2754    1.0000 </r>
       <r>   -7.2211    1.0000 </r>
       <r>   -7.0487    1.0000 </r>
       <r>   -6.9192    1.0000 </r>
       <r>   -6.9054    1.0000 </r>
       <r>    0.6689    0.0000 </r>
       <r>    0.6963    0.0000 </r>
       <r>    0.8294    0.0000 </r>
       <r>    1.0446    0.0000 </r>
       <r>    1.0736    0.0000 </r>
      </set>
      <set comment="kpoint 6">
       <r>  -25.0485    1.0000 </r>
       <r>  -25.0381    1.0000 </r>
       <r>  -25.0288    1.0000 </r>
       <r>  -25.0277    1.0000 </r>
       <r>  -10.4656    1.0000 </r>
       <r>  -10.4610    1.0000 </r>
       <r>  -10.4376    1.0000 </r>
       <r>  -10.4063    1.0000 </r>
       <r>   -8.5568    1.0000 </r>
       <r>   -8.5106    1.0000 </r>
       <r>   -8.5001    1.0000 </r>
       <r>   -8.4490    1.0000 </r>
       <r>   -8.3577    1.0000 </r>
       <r>   -8.3357    1.0000 </r>
       <r>   -8.2984    1.0000 </r>
       <r>   -8.2958    1.0000 </r>
       <r>   -7.2211    1.0000 </r>
       <r>   -7.0485    1.0000 </r>
       <r>   -6.9197    1.0000 </r>
       <r>   -6.9051    1.0000 </r>
       <r>    0.6626    0.0000 </r>
       <r>    0.6979    0.0000 </r>
       <r>    0.8298    0.0000 </r>
       <r>    1.0430    0.0000 </r>
       <r>    1.0844    0.0000 </r>
      </set>
      <set comment="kpoint 7">
       <r>  -25.0424    1.0000 </r>
       <r>  -25.0349    1.0000 </r>
       <r>  -25.0349    1.0000 </r>
       <r>  -25.0309    1.0000 </r>
       <r>  -10.4595    1.0000 </r>
       <r>  -10.4492    1.0000 </r>
       <r>  -10.4484    1.0000 </r>
       <r>  -10.4277    1.0000 </r>
       <r>   -8.5574    1.0000 </r>
       <r>   -8.5306    1.0000 </r>
       <r>   -8.4998    1.0000 </r>
       <r>   -8.4742    1.0000 </r>
       <r>   -8.3379    1.0000 </r>
       <r>   -8.3282    1.0000 </r>
       <r>   -8.2931    1.0000 </r>
       <r>   -8.2836    1.0000 </r>
       <r>   -7.1221    1.0000 </r>
       <r>   -7.0066    1.0000 </r>
       <r>   -7.0063    1.0000 </r>
       <r>   -6.9517    1.0000 </r>
       <r>    0.7997    0.0000 </r>
       <r>    0.8807    0.0000 </r>
       <r>    0.8861    0.0000 </r>
       <r>    1.0613    0.0000 </r>
       <r>    1.0868    0.0000 </r>
      </set>
      <set comment="kpoint 8">
       <r>  -25.0541    1.0000 </r>
       <r>  -25.0297    1.0000 </r>
       <r>  -25.0297    1.0000 </r>
       <r>  -25.0296    1.0000 </r>
       <r>  -10.4644    1.0000 </r>
       <r>  -10.4644    1.0000 </r>
       <r>  -10.4567    1.0000 </r>
       <r>  -10.3901    1.0000 </r>
       <r>   -8.5765    1.0000 </r>
       <r>   -8.4911    1.0000 </r>
       <r>   -8.4911    1.0000 </r>
       <r>   -8.4133    1.0000 </r>
       <r>   -8.3770    1.0000 </r>
       <r>   -8.3770    1.0000 </r>
       <r>   -8.2599    1.0000 </r>
       <r>   -8.2599    1.0000 </r>
       <r>   -7.3386    1.0000 </r>
       <r>   -6.9398    1.0000 </r>
       <r>   -6.9398    1.0000 </r>
       <r>   -6.9273    1.0000 </r>
       <r>    0.6023    0.0000 </r>
       <r>    0.6604    0.0000 </r>
       <r>    0.6606    0.0000 </r>
       <r>    1.0893    0.0000 </r>
       <r>    1.1276    0.0000 </r>
      </set>
      <set comment="kpoint 9">
       <r>  -25.0465    1.0000 </r>
       <r>  -25.0372    1.0000 </r>
       <r>  -25.0297    1.0000 </r>
       <r>  -25.0297    1.0000 </r>
       <r>  -10.4645    1.0000 </r>
       <r>  -10.4618    1.0000 </r>
       <r>  -10.4425    1.0000 </r>
       <r>  -10.4157    1.0000 </r>
       <r>   -8.5720    1.0000 </r>
       <r>   -8.5305    1.0000 </r>
       <r>   -8.4692    1.0000 </r>
       <r>   -8.4515    1.0000 </r>
       <r>   -8.3642    1.0000 </r>
       <r>   -8.3447    1.0000 </r>
       <r>   -8.2766    1.0000 </r>
       <r>   -8.2710    1.0000 </r>
       <r>   -7.1947    1.0000 </r>
       <r>   -7.0422    1.0000 </r>
       <r>   -6.9390    1.0000 </r>
       <r>   -6.9336    1.0000 </r>
       <r>    0.7158    0.0000 </r>
       <r>    0.7589    0.0000 </r>
       <r>    0.8654    0.0000 </r>
       <r>    1.0394    0.0000 </r>
       <r>    1.1257    0.0000 </r>
      </set>
      <set comment="kpoint 10">
       <r>  -25.0412    1.0000 </r>
       <r>  -25.0348    1.0000 </r>
       <r>  -25.0348    1.0000 </r>
       <r>  -25.0319    1.0000 </r>
       <r>  -10.4624    1.0000 </r>
       <r>  -10.4560    1.0000 </r>
       <r>  -10.4526    1.0000 </r>
       <r>  -10.4364    1.0000 </r>
       <r>   -8.5611    1.0000 </r>
       <r>   -8.5225    1.0000 </r>
       <r>   -8.5106    1.0000 </r>
       <r>   -8.4866    1.0000 </r>
       <r>   -8.3172    1.0000 </r>
       <r>   -8.3073    1.0000 </r>
       <r>   -8.2707    1.0000 </r>
       <r>   -8.2653    1.0000 </r>
       <r>   -7.1187    1.0000 </r>
       <r>   -7.0209    1.0000 </r>
       <r>   -7.0159    1.0000 </r>
       <r>   -6.9772    1.0000 </r>
       <r>    0.8311    0.0000 </r>
       <r>    0.9091    0.0000 </r>
       <r>    0.9254    0.0000 </r>
       <r>    1.0256    0.0000 </r>
       <r>    1.1092    0.0000 </r>
      </set>
      <set comment="kpoint 11">
       <r>  -25.0382    1.0000 </r>
       <r>  -25.0347    1.0000 </r>
       <r>  -25.0347    1.0000 </r>
       <r>  -25.0346    1.0000 </r>
       <r>  -10.4643    1.0000 </r>
       <r>  -10.4643    1.0000 </r>
       <r>  -10.4615    1.0000 </r>
       <r>  -10.4536    1.0000 </r>
       <r>   -8.5490    1.0000 </r>
       <r>   -8.5192    1.0000 </r>
       <r>   -8.5192    1.0000 </r>
       <r>   -8.5191    1.0000 </r>
       <r>   -8.2696    1.0000 </r>
       <r>   -8.2696    1.0000 </r>
       <r>   -8.2458    1.0000 </r>
       <r>   -8.2458    1.0000 </r>
       <r>   -7.0943    1.0000 </r>
       <r>   -7.0397    1.0000 </r>
       <r>   -7.0397    1.0000 </r>
       <r>   -7.0347    1.0000 </r>
       <r>    0.8957    0.0000 </r>
       <r>    0.9498    0.0000 </r>
       <r>    0.9569    0.0000 </r>
       <r>    1.0517    0.0000 </r>
       <r>    1.0970    0.0000 </r>
      </set>
     </set>
    </set>
   </array>
  </eigenvalues>
  <separator name="orbital magnetization" >
   <v name="MAGDIPOLOUT">      0.00000000      0.00000000      0.00000000</v>
  </separator>
  <dos>
   <i name="efermi">      0.43714582 </i>
   <total>
    <array>
     <dimension dim="1">gridpoints</dimension>
     <dimension dim="2">spin</dimension>
     <field>energy</field>
     <field>total</field>
     <field>integrated</field>
     <set>
      <set comment="spin 1">
       <r>   -27.0637     0.0000     0.0000 </r>
       <r>   -26.9630     0.0000     0.0000 </r>
       <r>   -26.8622     0.0000     0.0000 </r>
       <r>   -26.7615     0.0000     0.0000 </r>
       <r>   -26.6608     0.0000     0.0000 </r>
       <r>   -26.5600     0.0000     0.0000 </r>
       <r>   -26.4593     0.0000     0.0000 </r>
       <r>   -26.3586     0.0000     0.0000 </r>
       <r>   -26.2578     0.0000     0.0000 </r>
       <r>   -26.1571     0.0000     0.0000 </r>
       <r>   -26.0564     0.0000     0.0000 </r>
       <r>   -25.9556     0.0000     0.0000 </r>
       <r>   -25.8549     0.0000     0.0000 </r>
       <r>   -25.7542     0.0000     0.0000 </r>
       <r>   -25.6534     0.0000     0.0000 </r>
       <r>   -25.5527     0.0000     0.0000 </r>
       <r>   -25.4520     0.0000     0.0000 </r>
       <r>   -25.3512     0.0000     0.0000 </r>
       <r>   -25.2505     0.0000     0.0000 </r>
       <r>   -25.1498     0.0000     0.0000 </r>
       <r>   -25.0491   145.8120     0.6881 </r>
       <r>   -24.9483    69.4114     8.0000 </r>
       <r>   -24.8476     0.0000     8.0000 </r>
       <r>   -24.7469     0.0000     8.0000 </r>
       <r>   -24.6461     0.0000     8.0000 </r>
       <r>   -24.5454     0.0000     8.0000 </r>
       <r>   -24.4447     0.0000     8.0000 </r>
       <r>   -24.3439     0.0000     8.0000 </r>
       <r>   -24.2432     0.0000     8.0000 </r>
       <r>   -24.1425     0.0000     8.0000 </r>
       <r>   -24.0417     0.0000     8.0000 </r>
       <r>   -23.9410     0.0000     8.0000 </r>
       <r>   -23.8403     0.0000     8.0000 </r>
       <r>   -23.7395     0.0000     8.0000 </r>
       <r>   -23.6388     0.0000     8.0000 </r>
       <r>   -23.5381     0.0000     8.0000 </r>
       <r>   -23.4373     0.0000     8.0000 </r>
       <r>   -23.3366     0.0000     8.0000 </r>
       <r>   -23.2359     0.0000     8.0000 </r>
       <r>   -23.1351     0.0000     8.0000 </r>
       <r>   -23.0344     0.0000     8.0000 </r>
       <r>   -22.9337     0.0000     8.0000 </r>
       <r>   -22.8329     0.0000     8.0000 </r>
       <r>   -22.7322     0.0000     8.0000 </r>
       <r>   -22.6315     0.0000     8.0000 </r>
       <r>   -22.5307     0.0000     8.0000 </r>
       <r>   -22.4300     0.0000     8.0000 </r>
       <r>   -22.3293     0.0000     8.0000 </r>
       <r>   -22.2285     0.0000     8.0000 </r>
       <r>   -22.1278     0.0000     8.0000 </r>
       <r>   -22.0271     0.0000     8.0000 </r>
       <r>   -21.9263     0.0000     8.0000 </r>
       <r>   -21.8256     0.0000     8.0000 </r>
       <r>   -21.7249     0.0000     8.0000 </r>
       <r>   -21.6241     0.0000     8.0000 </r>
       <r>   -21.5234     0.0000     8.0000 </r>
       <r>   -21.4227     0.0000     8.0000 </r>
       <r>   -21.3219     0.0000     8.0000 </r>
       <r>   -21.2212     0.0000     8.0000 </r>
       <r>   -21.1205     0.0000     8.0000 </r>
       <r>   -21.0197     0.0000     8.0000 </r>
       <r>   -20.9190     0.0000     8.0000 </r>
       <r>   -20.8183     0.0000     8.0000 </r>
       <r>   -20.7175     0.0000     8.0000 </r>
       <r>   -20.6168     0.0000     8.0000 </r>
       <r>   -20.5161     0.0000     8.0000 </r>
       <r>   -20.4153     0.0000     8.0000 </r>
       <r>   -20.3146     0.0000     8.0000 </r>
       <r>   -20.2139     0.0000     8.0000 </r>
       <r>   -20.1132     0.0000     8.0000 </r>
       <r>   -20.0124     0.0000     8.0000 </r>
       <r>   -19.9117     0.0000     8.0000 </r>
       <r>   -19.8110     0.0000     8.0000 </r>
       <r>   -19.7102     0.0000     8.0000 </r>
       <r>   -19.6095     0.0000     8.0000 </r>
       <r>   -19.5088     0.0000     8.0000 </r>
       <r>   -19.4080     0.0000     8.0000 </r>
       <r>   -19.3073     0.0000     8.0000 </r>
       <r>   -19.2066     0.0000     8.0000 </r>
       <r>   -19.1058     0.0000     8.0000 </r>
       <r>   -19.0051     0.0000     8.0000 </r>
       <r>   -18.9044     0.0000     8.0000 </r>
       <r>   -18.8036     0.0000     8.0000 </r>
       <r>   -18.7029     0.0000     8.0000 </r>
       <r>   -18.6022     0.0000     8.0000 </r>
       <r>   -18.5014     0.0000     8.0000 </r>
       <r>   -18.4007     0.0000     8.0000 </r>
       <r>   -18.3000     0.0000     8.0000 </r>
       <r>   -18.1992     0.0000     8.0000 </r>
       <r>   -18.0985     0.0000     8.0000 </r>
       <r>   -17.9978     0.0000     8.0000 </r>
       <r>   -17.8970     0.0000     8.0000 </r>
       <r>   -17.7963     0.0000     8.0000 </r>
       <r>   -17.6956     0.0000     8.0000 </r>
       <r>   -17.5948     0.0000     8.0000 </r>
       <r>   -17.4941     0.0000     8.0000 </r>
       <r>   -17.3934     0.0000     8.0000 </r>
       <r>   -17.2926     0.0000     8.0000 </r>
       <r>   -17.1919     0.0000     8.0000 </r>
       <r>   -17.0912     0.0000     8.0000 </r>
       <r>   -16.9904     0.0000     8.0000 </r>
       <r>   -16.8897     0.0000     8.0000 </r>
       <r>   -16.7890     0.0000     8.0000 </r>
       <r>   -16.6882     0.0000     8.0000 </r>
       <r>   -16.5875     0.0000     8.0000 </r>
       <r>   -16.4868     0.0000     8.0000 </r>
       <r>   -16.3860     0.0000     8.0000 </r>
       <r>   -16.2853     0.0000     8.0000 </r>
       <r>   -16.1846     0.0000     8.0000 </r>
       <r>   -16.0838     0.0000     8.0000 </r>
       <r>   -15.9831     0.0000     8.0000 </r>
       <r>   -15.8824     0.0000     8.0000 </r>
       <r>   -15.7816     0.0000     8.0000 </r>
       <r>   -15.6809     0.0000     8.0000 </r>
       <r>   -15.5802     0.0000     8.0000 </r>
       <r>   -15.4794     0.0000     8.0000 </r>
       <r>   -15.3787     0.0000     8.0000 </r>
       <r>   -15.2780     0.0000     8.0000 </r>
       <r>   -15.1773     0.0000     8.0000 </r>
       <r>   -15.0765     0.0000     8.0000 </r>
       <r>   -14.9758     0.0000     8.0000 </r>
       <r>   -14.8751     0.0000     8.0000 </r>
       <r>   -14.7743     0.0000     8.0000 </r>
       <r>   -14.6736     0.0000     8.0000 </r>
       <r>   -14.5729     0.0000     8.0000 </r>
       <r>   -14.4721     0.0000     8.0000 </r>
       <r>   -14.3714     0.0000     8.0000 </r>
       <r>   -14.2707     0.0000     8.0000 </r>
       <r>   -14.1699     0.0000     8.0000 </r>
       <r>   -14.0692     0.0000     8.0000 </r>
       <r>   -13.9685     0.0000     8.0000 </r>
       <r>   -13.8677     0.0000     8.0000 </r>
       <r>   -13.7670     0.0000     8.0000 </r>
       <r>   -13.6663     0.0000     8.0000 </r>
       <r>   -13.5655     0.0000     8.0000 </r>
       <r>   -13.4648     0.0000     8.0000 </r>
       <r>   -13.3641     0.0000     8.0000 </r>
       <r>   -13.2633     0.0000     8.0000 </r>
       <r>   -13.1626     0.0000     8.0000 </r>
       <r>   -13.0619     0.0000     8.0000 </r>
       <r>   -12.9611     0.0000     8.0000 </r>
       <r>   -12.8604     0.0000     8.0000 </r>
       <r>   -12.7597     0.0000     8.0000 </r>
       <r>   -12.6589     0.0000     8.0000 </r>
       <r>   -12.5582     0.0000     8.0000 </r>
       <r>   -12.4575     0.0000     8.0000 </r>
       <r>   -12.3567     0.0000     8.0000 </r>
       <r>   -12.2560     0.0000     8.0000 </r>
       <r>   -12.1553     0.0000     8.0000 </r>
       <r>   -12.0545     0.0000     8.0000 </r>
       <r>   -11.9538     0.0000     8.0000 </r>
       <r>   -11.8531     0.0000     8.0000 </r>
       <r>   -11.7523     0.0000     8.0000 </r>
       <r>   -11.6516     0.0000     8.0000 </r>
       <r>   -11.5509     0.0000     8.0000 </r>
       <r>   -11.4501     0.0000     8.0000 </r>
       <r>   -11.3494     0.0000     8.0000 </r>
       <r>   -11.2487     0.0000     8.0000 </r>
       <r>   -11.1479     0.0000     8.0000 </r>
       <r>   -11.0472     0.0000     8.0000 </r>
       <r>   -10.9465     0.0000     8.0000 </r>
       <r>   -10.8457     0.0000     8.0000 </r>
       <r>   -10.7450     0.0000     8.0000 </r>
       <r>   -10.6443     0.0000     8.0000 </r>
       <r>   -10.5435     0.0000     8.0000 </r>
       <r>   -10.4428   139.8066    13.6445 </r>
       <r>   -10.3421    18.5838    16.0000 </r>
       <r>   -10.2414     0.0000    16.0000 </r>
       <r>   -10.1406     0.0000    16.0000 </r>
       <r>   -10.0399     0.0000    16.0000 </r>
       <r>    -9.9392     0.0000    16.0000 </r>
       <r>    -9.8384     0.0000    16.0000 </r>
       <r>    -9.7377     0.0000    16.0000 </r>
       <r>    -9.6370     0.0000    16.0000 </r>
       <r>    -9.5362     0.0000    16.0000 </r>
       <r>    -9.4355     0.0000    16.0000 </r>
       <r>    -9.3348     0.0000    16.0000 </r>
       <r>    -9.2340     0.0000    16.0000 </r>
       <r>    -9.1333     0.0000    16.0000 </r>
       <r>    -9.0326     0.0000    16.0000 </r>
       <r>    -8.9318     0.0000    16.0000 </r>
       <r>    -8.8311     0.0000    16.0000 </r>
       <r>    -8.7304     0.0000    16.0000 </r>
       <r>    -8.6296     0.0000    16.0000 </r>
       <r>    -8.5289   111.7971    18.4835 </r>
       <r>    -8.4282    46.1690    23.4972 </r>
       <r>    -8.3274    63.5071    26.9755 </r>
       <r>    -8.2267    42.8858    32.0000 </r>
       <r>    -8.1260     0.0000    32.0000 </r>
       <r>    -8.0252     0.0000    32.0000 </r>
       <r>    -7.9245     0.0000    32.0000 </r>
       <r>    -7.8238     0.0000    32.0000 </r>
       <r>    -7.7230     0.0000    32.0000 </r>
       <r>    -7.6223     0.0000    32.0000 </r>
       <r>    -7.5216     0.3020    32.0078 </r>
       <r>    -7.4208     1.6857    32.1019 </r>
       <r>    -7.3201     2.9217    32.3239 </r>
       <r>    -7.2194    10.8770    32.8290 </r>
       <r>    -7.1186    13.5098    33.8086 </r>
       <r>    -7.0179    46.5914    35.4538 </r>
       <r>    -6.9172    60.6435    38.9938 </r>
       <r>    -6.8164     2.0649    40.0000 </r>
       <r>    -6.7157     0.0000    40.0000 </r>
       <r>    -6.6150     0.0000    40.0000 </r>
       <r>    -6.5142     0.0000    40.0000 </r>
       <r>    -6.4135     0.0000    40.0000 </r>
       <r>    -6.3128     0.0000    40.0000 </r>
       <r>    -6.2120     0.0000    40.0000 </r>
       <r>    -6.1113     0.0000    40.0000 </r>
       <r>    -6.0106     0.0000    40.0000 </r>
       <r>    -5.9098     0.0000    40.0000 </r>
       <r>    -5.8091     0.0000    40.0000 </r>
       <r>    -5.7084     0.0000    40.0000 </r>
       <r>    -5.6076     0.0000    40.0000 </r>
       <r>    -5.5069     0.0000    40.0000 </r>
       <r>    -5.4062     0.0000    40.0000 </r>
       <r>    -5.3054     0.0000    40.0000 </r>
       <r>    -5.2047     0.0000    40.0000 </r>
       <r>    -5.1040     0.0000    40.0000 </r>
       <r>    -5.0033     0.0000    40.0000 </r>
       <r>    -4.9025     0.0000    40.0000 </r>
       <r>    -4.8018     0.0000    40.0000 </r>
       <r>    -4.7011     0.0000    40.0000 </r>
       <r>    -4.6003     0.0000    40.0000 </r>
       <r>    -4.4996     0.0000    40.0000 </r>
       <r>    -4.3989     0.0000    40.0000 </r>
       <r>    -4.2981     0.0000    40.0000 </r>
       <r>    -4.1974     0.0000    40.0000 </r>
       <r>    -4.0967     0.0000    40.0000 </r>
       <r>    -3.9959     0.0000    40.0000 </r>
       <r>    -3.8952     0.0000    40.0000 </r>
       <r>    -3.7945     0.0000    40.0000 </r>
       <r>    -3.6937     0.0000    40.0000 </r>
       <r>    -3.5930     0.0000    40.0000 </r>
       <r>    -3.4923     0.0000    40.0000 </r>
       <r>    -3.3915     0.0000    40.0000 </r>
       <r>    -3.2908     0.0000    40.0000 </r>
       <r>    -3.1901     0.0000    40.0000 </r>
       <r>    -3.0893     0.0000    40.0000 </r>
       <r>    -2.9886     0.0000    40.0000 </r>
       <r>    -2.8879     0.0000    40.0000 </r>
       <r>    -2.7871     0.0000    40.0000 </r>
       <r>    -2.6864     0.0000    40.0000 </r>
       <r>    -2.5857     0.0000    40.0000 </r>
       <r>    -2.4849     0.0000    40.0000 </r>
       <r>    -2.3842     0.0000    40.0000 </r>
       <r>    -2.2835     0.0000    40.0000 </r>
       <r>    -2.1827     0.0000    40.0000 </r>
       <r>    -2.0820     0.0000    40.0000 </r>
       <r>    -1.9813     0.0000    40.0000 </r>
       <r>    -1.8805     0.0000    40.0000 </r>
       <r>    -1.7798     0.0000    40.0000 </r>
       <r>    -1.6791     0.0000    40.0000 </r>
       <r>    -1.5783     0.0000    40.0000 </r>
       <r>    -1.4776     0.0000    40.0000 </r>
       <r>    -1.3769     0.0000    40.0000 </r>
       <r>    -1.2761     0.0000    40.0000 </r>
       <r>    -1.1754     0.0000    40.0000 </r>
       <r>    -1.0747     0.0000    40.0000 </r>
       <r>    -0.9739     0.0000    40.0000 </r>
       <r>    -0.8732     0.0000    40.0000 </r>
       <r>    -0.7725     0.0000    40.0000 </r>
       <r>    -0.6717     0.0000    40.0000 </r>
       <r>    -0.5710     0.0000    40.0000 </r>
       <r>    -0.4703     0.0000    40.0000 </r>
       <r>    -0.3695     0.0000    40.0000 </r>
       <r>    -0.2688     0.0000    40.0000 </r>
       <r>    -0.1681     0.0000    40.0000 </r>
       <r>    -0.0674     0.0000    40.0000 </r>
       <r>     0.0334     0.0000    40.0000 </r>
       <r>     0.1341     0.0000    40.0000 </r>
       <r>     0.2348     0.0000    40.0000 </r>
       <r>     0.3356     0.0000    40.0000 </r>
       <r>     0.4363     0.0000    40.0000 </r>
       <r>     0.5370     4.9538    40.1925 </r>
       <r>     0.6378    12.7573    41.0174 </r>
       <r>     0.7385    15.0090    42.5448 </r>
       <r>     0.8392    19.7967    44.1693 </r>
       <r>     0.9400    13.1755    45.8637 </r>
       <r>     1.0407    61.7902    46.5447 </r>
       <r>     1.1414    31.2636    49.9024 </r>
       <r>     1.2422     0.0000    50.0000 </r>
       <r>     1.3429     0.0000    50.0000 </r>
       <r>     1.4436     0.0000    50.0000 </r>
       <r>     1.5444     0.0000    50.0000 </r>
       <r>     1.6451     0.0000    50.0000 </r>
       <r>     1.7458     0.0000    50.0000 </r>
       <r>     1.8466     0.0000    50.0000 </r>
       <r>     1.9473     0.0000    50.0000 </r>
       <r>     2.0480     0.0000    50.0000 </r>
       <r>     2.1488     0.0000    50.0000 </r>
       <r>     2.2495     0.0000    50.0000 </r>
       <r>     2.3502     0.0000    50.0000 </r>
       <r>     2.4510     0.0000    50.0000 </r>
       <r>     2.5517     0.0000    50.0000 </r>
       <r>     2.6524     0.0000    50.0000 </r>
       <r>     2.7532     0.0000    50.0000 </r>
       <r>     2.8539     0.0000    50.0000 </r>
       <r>     2.9546     0.0000    50.0000 </r>
       <r>     3.0554     0.0000    50.0000 </r>
       <r>     3.1561     0.0000    50.0000 </r>
      </set>
     </set>
    </array>
   </total>
  </dos>
 </calculation>
 <structure name="finalpos" >
  <crystal>
   <varray name="basis" >
    <v>       5.85507835       0.00000000      -0.00000000 </v>
    <v>      -0.00000000       5.85507835       0.00000000 </v>
    <v>       0.00000000      -0.00000000       5.85507835 </v>
   </varray>
   <i name="volume">    200.72345938 </i>
   <varray name="rec_basis" >
    <v>       0.17079191       0.00000000      -0.00000000 </v>
    <v>      -0.00000000       0.17079191       0.00000000 </v>
    <v>       0.00000000      -0.00000000       0.17079191 </v>
   </varray>
  </crystal>
  <varray name="positions" >
   <v>       0.55489412       0.44510588       0.94510588 </v>
   <v>       0.44510588       0.55489412       0.05489412 </v>
   <v>       0.94510588       0.55489412       0.44510588 </v>
   <v>       0.05489412       0.44510588       0.55489412 </v>
   <v>       0.05489412       0.05489412       0.05489412 </v>
   <v>       0.94510588       0.94510588       0.94510588 </v>
   <v>       0.44510588       0.94510588       0.55489412 </v>
   <v>       0.55489412       0.05489412       0.44510588 </v>
  </varray>
 </structure>
</modeling>
