unknown system                          
            1
     5.855921   -0.000000   -0.000000
     0.000000    5.855921   -0.000000
     0.000000    0.000000    5.855921
   N 
     8
Direct configuration=     1
   0.55486900  0.44513100  0.94513100
   0.44513100  0.55486900  0.05486900
   0.94513100  0.55486900  0.44513100
   0.05486900  0.44513100  0.55486900
   0.05486900  0.05486900  0.05486900
   0.94513100  0.94513100  0.94513100
   0.44513100  0.94513100  0.55486900
   0.55486900  0.05486900  0.44513100
unknown system                          
            1
     5.852645    0.000000   -0.000000
    -0.000000    5.852645    0.000000
     0.000000   -0.000000    5.852645
   N 
     8
Direct configuration=     2
   0.55496682  0.44503318  0.94503318
   0.44503318  0.55496682  0.05496682
   0.94503318  0.55496682  0.44503318
   0.05496682  0.44503318  0.55496682
   0.05496682  0.05496682  0.05496682
   0.94503318  0.94503318  0.94503318
   0.44503318  0.94503318  0.55496682
   0.55496682  0.05496682  0.44503318
unknown system                          
            1
     5.855078    0.000000   -0.000000
    -0.000000    5.855078    0.000000
     0.000000   -0.000000    5.855078
   N 
     8
Direct configuration=     3
   0.55489412  0.44510588  0.94510588
   0.44510588  0.55489412  0.05489412
   0.94510588  0.55489412  0.44510588
   0.05489412  0.44510588  0.55489412
   0.05489412  0.05489412  0.05489412
   0.94510588  0.94510588  0.94510588
   0.44510588  0.94510588  0.55489412
   0.55489412  0.05489412  0.44510588
