   6   6   0   0
  0.2355907E+02  0.3877607E-09  0.7218619E-09  0.6948463E-09  0.5000000E-15
   1.0000000000000000E-004
  CAR 
 unknown system                          
      4.97201612    -26.72759031  301     -0.67757552      1.00000000
    -26.728  0.0000E+00  0.0000E+00
    -26.622  0.0000E+00  0.0000E+00
    -26.516  0.0000E+00  0.0000E+00
    -26.411  0.0000E+00  0.0000E+00
    -26.305  0.0000E+00  0.0000E+00
    -26.199  0.0000E+00  0.0000E+00
    -26.094  0.0000E+00  0.0000E+00
    -25.988  0.0000E+00  0.0000E+00
    -25.882  0.0000E+00  0.0000E+00
    -25.777  0.0000E+00  0.0000E+00
    -25.671  0.0000E+00  0.0000E+00
    -25.565  0.0000E+00  0.0000E+00
    -25.460  0.0000E+00  0.0000E+00
    -25.354  0.0000E+00  0.0000E+00
    -25.248  0.0000E+00  0.0000E+00
    -25.143  0.0000E+00  0.0000E+00
    -25.037  0.0000E+00  0.0000E+00
    -24.931  0.0000E+00  0.0000E+00
    -24.826  0.0000E+00  0.0000E+00
    -24.720  0.5513E+00  0.6139E-02
    -24.614  0.1052E+00  0.2000E-01
    -24.509  0.0000E+00  0.2000E-01
    -24.403  0.0000E+00  0.2000E-01
    -24.297  0.0000E+00  0.2000E-01
    -24.192  0.0000E+00  0.2000E-01
    -24.086  0.0000E+00  0.2000E-01
    -23.980  0.0000E+00  0.2000E-01
    -23.875  0.0000E+00  0.2000E-01
    -23.769  0.0000E+00  0.2000E-01
    -23.663  0.0000E+00  0.2000E-01
    -23.558  0.0000E+00  0.2000E-01
    -23.452  0.0000E+00  0.2000E-01
    -23.346  0.0000E+00  0.2000E-01
    -23.241  0.0000E+00  0.2000E-01
    -23.135  0.0000E+00  0.2000E-01
    -23.029  0.0000E+00  0.2000E-01
    -22.924  0.0000E+00  0.2000E-01
    -22.818  0.0000E+00  0.2000E-01
    -22.712  0.1458E+00  0.2888E-01
    -22.607  0.8062E-01  0.4000E-01
    -22.501  0.0000E+00  0.4000E-01
    -22.395  0.0000E+00  0.4000E-01
    -22.290  0.0000E+00  0.4000E-01
    -22.184  0.0000E+00  0.4000E-01
    -22.078  0.0000E+00  0.4000E-01
    -21.973  0.0000E+00  0.4000E-01
    -21.867  0.0000E+00  0.4000E-01
    -21.761  0.0000E+00  0.4000E-01
    -21.656  0.0000E+00  0.4000E-01
    -21.550  0.0000E+00  0.4000E-01
    -21.444  0.0000E+00  0.4000E-01
    -21.339  0.0000E+00  0.4000E-01
    -21.233  0.0000E+00  0.4000E-01
    -21.127  0.0000E+00  0.4000E-01
    -21.022  0.0000E+00  0.4000E-01
    -20.916  0.0000E+00  0.4000E-01
    -20.810  0.0000E+00  0.4000E-01
    -20.705  0.0000E+00  0.4000E-01
    -20.599  0.0000E+00  0.4000E-01
    -20.493  0.1893E+00  0.6000E-01
    -20.388  0.0000E+00  0.6000E-01
    -20.282  0.0000E+00  0.6000E-01
    -20.176  0.0000E+00  0.6000E-01
    -20.071  0.0000E+00  0.6000E-01
    -19.965  0.0000E+00  0.6000E-01
    -19.859  0.0000E+00  0.6000E-01
    -19.754  0.0000E+00  0.6000E-01
    -19.648  0.0000E+00  0.6000E-01
    -19.542  0.0000E+00  0.6000E-01
    -19.437  0.0000E+00  0.6000E-01
    -19.331  0.0000E+00  0.6000E-01
    -19.225  0.0000E+00  0.6000E-01
    -19.120  0.0000E+00  0.6000E-01
    -19.014  0.0000E+00  0.6000E-01
    -18.908  0.0000E+00  0.6000E-01
    -18.803  0.0000E+00  0.6000E-01
    -18.697  0.0000E+00  0.6000E-01
    -18.591  0.0000E+00  0.6000E-01
    -18.486  0.0000E+00  0.6000E-01
    -18.380  0.0000E+00  0.6000E-01
    -18.274  0.0000E+00  0.6000E-01
    -18.169  0.0000E+00  0.6000E-01
    -18.063  0.0000E+00  0.6000E-01
    -17.957  0.0000E+00  0.6000E-01
    -17.852  0.0000E+00  0.6000E-01
    -17.746  0.0000E+00  0.6000E-01
    -17.640  0.0000E+00  0.6000E-01
    -17.535  0.0000E+00  0.6000E-01
    -17.429  0.0000E+00  0.6000E-01
    -17.323  0.0000E+00  0.6000E-01
    -17.218  0.0000E+00  0.6000E-01
    -17.112  0.0000E+00  0.6000E-01
    -17.006  0.0000E+00  0.6000E-01
    -16.901  0.0000E+00  0.6000E-01
    -16.795  0.0000E+00  0.6000E-01
    -16.689  0.0000E+00  0.6000E-01
    -16.584  0.0000E+00  0.6000E-01
    -16.478  0.0000E+00  0.6000E-01
    -16.372  0.0000E+00  0.6000E-01
    -16.267  0.0000E+00  0.6000E-01
    -16.161  0.0000E+00  0.6000E-01
    -16.055  0.0000E+00  0.6000E-01
    -15.950  0.0000E+00  0.6000E-01
    -15.844  0.0000E+00  0.6000E-01
    -15.738  0.0000E+00  0.6000E-01
    -15.633  0.0000E+00  0.6000E-01
    -15.527  0.0000E+00  0.6000E-01
    -15.421  0.0000E+00  0.6000E-01
    -15.316  0.0000E+00  0.6000E-01
    -15.210  0.0000E+00  0.6000E-01
    -15.104  0.0000E+00  0.6000E-01
    -14.999  0.0000E+00  0.6000E-01
    -14.893  0.0000E+00  0.6000E-01
    -14.787  0.0000E+00  0.6000E-01
    -14.682  0.0000E+00  0.6000E-01
    -14.576  0.3686E-01  0.6239E-01
    -14.470  0.1582E-01  0.6406E-01
    -14.365  0.1582E-01  0.6574E-01
    -14.259  0.8571E-02  0.6707E-01
    -14.153  0.8571E-02  0.6797E-01
    -14.048  0.8571E-02  0.6888E-01
    -13.942  0.8571E-02  0.6979E-01
    -13.836  0.8571E-02  0.7069E-01
    -13.731  0.6719E-02  0.7149E-01
    -13.625  0.6719E-02  0.7220E-01
    -13.519  0.6719E-02  0.7291E-01
    -13.414  0.6719E-02  0.7362E-01
    -13.308  0.6719E-02  0.7433E-01
    -13.202  0.6719E-02  0.7504E-01
    -13.097  0.9312E-02  0.7583E-01
    -12.991  0.9313E-02  0.7681E-01
    -12.885  0.9313E-02  0.7780E-01
    -12.780  0.9313E-02  0.7878E-01
    -12.674  0.9313E-02  0.7976E-01
    -12.568  0.0000E+00  0.8000E-01
    -12.463  0.0000E+00  0.8000E-01
    -12.357  0.0000E+00  0.8000E-01
    -12.251  0.0000E+00  0.8000E-01
    -12.146  0.0000E+00  0.8000E-01
    -12.040  0.0000E+00  0.8000E-01
    -11.934  0.1290E-01  0.8028E-01
    -11.829  0.1290E-01  0.8165E-01
    -11.723  0.1290E-01  0.8301E-01
    -11.617  0.1292E-01  0.8437E-01
    -11.512  0.1317E-01  0.8576E-01
    -11.406  0.1317E-01  0.8715E-01
    -11.300  0.1317E-01  0.8854E-01
    -11.195  0.2246E-01  0.9068E-01
    -11.089  0.2275E-01  0.9305E-01
    -10.983  0.1197E+00  0.9806E-01
    -10.878  0.1052E-01  0.1000E+00
    -10.772  0.0000E+00  0.1000E+00
    -10.666  0.0000E+00  0.1000E+00
    -10.561  0.0000E+00  0.1000E+00
    -10.455  0.0000E+00  0.1000E+00
    -10.349  0.0000E+00  0.1000E+00
    -10.244  0.0000E+00  0.1000E+00
    -10.138  0.2803E-01  0.1007E+00
    -10.032  0.2803E-01  0.1037E+00
     -9.927  0.1240E-01  0.1054E+00
     -9.821  0.1240E-01  0.1067E+00
     -9.715  0.1240E-01  0.1080E+00
     -9.610  0.1579E-01  0.1095E+00
     -9.504  0.1579E-01  0.1111E+00
     -9.398  0.1579E-01  0.1128E+00
     -9.293  0.9920E-01  0.1180E+00
     -9.187  0.8412E-02  0.1200E+00
     -9.081  0.0000E+00  0.1200E+00
     -8.976  0.0000E+00  0.1200E+00
     -8.870  0.0000E+00  0.1200E+00
     -8.764  0.5274E+00  0.1271E+00
     -8.659  0.2929E+00  0.1508E+00
     -8.553  0.9339E-01  0.1568E+00
     -8.447  0.0000E+00  0.1600E+00
     -8.342  0.0000E+00  0.1600E+00
     -8.236  0.0000E+00  0.1600E+00
     -8.130  0.0000E+00  0.1600E+00
     -8.025  0.0000E+00  0.1600E+00
     -7.919  0.0000E+00  0.1600E+00
     -7.813  0.0000E+00  0.1600E+00
     -7.708  0.0000E+00  0.1600E+00
     -7.602  0.0000E+00  0.1600E+00
     -7.496  0.2138E-01  0.1602E+00
     -7.391  0.4552E-01  0.1647E+00
     -7.285  0.2834E-01  0.1679E+00
     -7.179  0.3176E-01  0.1710E+00
     -7.074  0.1130E+00  0.1767E+00
     -6.968  0.5709E-01  0.1864E+00
     -6.863  0.2876E-01  0.1892E+00
     -6.757  0.5562E-01  0.1933E+00
     -6.651  0.1603E+00  0.2070E+00
     -6.546  0.1554E-01  0.2100E+00
     -6.440  0.1414E-01  0.2115E+00
     -6.334  0.1415E-01  0.2130E+00
     -6.229  0.1419E-01  0.2145E+00
     -6.123  0.1419E-01  0.2160E+00
     -6.017  0.1419E-01  0.2175E+00
     -5.912  0.2103E-01  0.2200E+00
     -5.806  0.0000E+00  0.2200E+00
     -5.700  0.0000E+00  0.2200E+00
     -5.595  0.0000E+00  0.2200E+00
     -5.489  0.0000E+00  0.2200E+00
     -5.383  0.0000E+00  0.2200E+00
     -5.278  0.0000E+00  0.2200E+00
     -5.172  0.0000E+00  0.2200E+00
     -5.066  0.0000E+00  0.2200E+00
     -4.961  0.0000E+00  0.2200E+00
     -4.855  0.0000E+00  0.2200E+00
     -4.749  0.0000E+00  0.2200E+00
     -4.644  0.0000E+00  0.2200E+00
     -4.538  0.0000E+00  0.2200E+00
     -4.432  0.0000E+00  0.2200E+00
     -4.327  0.0000E+00  0.2200E+00
     -4.221  0.2314E-01  0.2210E+00
     -4.115  0.4180E-01  0.2247E+00
     -4.010  0.4178E-01  0.2289E+00
     -3.904  0.7298E-01  0.2346E+00
     -3.798  0.2246E-01  0.2400E+00
     -3.693  0.0000E+00  0.2400E+00
     -3.587  0.0000E+00  0.2400E+00
     -3.481  0.0000E+00  0.2400E+00
     -3.376  0.0000E+00  0.2400E+00
     -3.270  0.2201E+00  0.2480E+00
     -3.164  0.9814E-01  0.2600E+00
     -3.059  0.0000E+00  0.2600E+00
     -2.953  0.0000E+00  0.2600E+00
     -2.847  0.0000E+00  0.2600E+00
     -2.742  0.4443E-02  0.2602E+00
     -2.636  0.1117E-01  0.2609E+00
     -2.530  0.1950E-01  0.2626E+00
     -2.425  0.2157E-01  0.2648E+00
     -2.319  0.1766E-01  0.2669E+00
     -2.213  0.1339E-01  0.2685E+00
     -2.108  0.1207E-01  0.2698E+00
     -2.002  0.1145E-01  0.2710E+00
     -1.896  0.1068E-01  0.2722E+00
     -1.791  0.1036E-01  0.2733E+00
     -1.685  0.1107E-01  0.2744E+00
     -1.579  0.1451E-01  0.2757E+00
     -1.474  0.1686E-01  0.2775E+00
     -1.368  0.1123E-01  0.2790E+00
     -1.262  0.3991E-02  0.2798E+00
     -1.157  0.5082E-03  0.2800E+00
     -1.051  0.3065E-01  0.2800E+00
     -0.945  0.3724E-01  0.2839E+00
     -0.840  0.1901E-01  0.2859E+00
     -0.734  0.2452E-01  0.2877E+00
     -0.628  0.4978E-01  0.2924E+00
     -0.523  0.5742E-01  0.2983E+00
     -0.417  0.4206E-02  0.3000E+00
     -0.311  0.0000E+00  0.3000E+00
     -0.206  0.0000E+00  0.3000E+00
     -0.100  0.0000E+00  0.3000E+00
      0.006  0.0000E+00  0.3000E+00
      0.111  0.0000E+00  0.3000E+00
      0.217  0.1066E-01  0.3001E+00
      0.323  0.3265E-01  0.3024E+00
      0.428  0.4853E-01  0.3073E+00
      0.534  0.4305E-01  0.3119E+00
      0.640  0.1343E-01  0.3149E+00
      0.745  0.1981E-01  0.3166E+00
      0.851  0.1274E-01  0.3181E+00
      0.957  0.8676E-02  0.3192E+00
      1.062  0.2630E-02  0.3200E+00
      1.168  0.0000E+00  0.3200E+00
      1.274  0.0000E+00  0.3200E+00
      1.379  0.0000E+00  0.3200E+00
      1.485  0.0000E+00  0.3200E+00
      1.591  0.0000E+00  0.3200E+00
      1.696  0.0000E+00  0.3200E+00
      1.802  0.0000E+00  0.3200E+00
      1.908  0.0000E+00  0.3200E+00
      2.013  0.7381E-02  0.3203E+00
      2.119  0.2223E-01  0.3217E+00
      2.225  0.5274E-01  0.3246E+00
      2.330  0.5973E-01  0.3314E+00
      2.436  0.3751E-01  0.3360E+00
      2.542  0.4200E-01  0.3403E+00
      2.647  0.5489E-01  0.3447E+00
      2.753  0.8283E-01  0.3523E+00
      2.859  0.3555E-01  0.3578E+00
      2.964  0.7795E-02  0.3600E+00
      3.070  0.0000E+00  0.3600E+00
      3.176  0.0000E+00  0.3600E+00
      3.281  0.0000E+00  0.3600E+00
      3.387  0.0000E+00  0.3600E+00
      3.493  0.0000E+00  0.3600E+00
      3.598  0.0000E+00  0.3600E+00
      3.704  0.0000E+00  0.3600E+00
      3.810  0.0000E+00  0.3600E+00
      3.915  0.0000E+00  0.3600E+00
      4.021  0.0000E+00  0.3600E+00
      4.127  0.0000E+00  0.3600E+00
      4.232  0.0000E+00  0.3600E+00
      4.338  0.0000E+00  0.3600E+00
      4.444  0.0000E+00  0.3600E+00
      4.549  0.0000E+00  0.3600E+00
      4.655  0.0000E+00  0.3600E+00
      4.761  0.0000E+00  0.3600E+00
      4.866  0.0000E+00  0.3600E+00
      4.972  0.0000E+00  0.3600E+00
