    6    6  100    1
  0.2355907E+02  0.3877607E-09  0.7218619E-09  0.6948463E-09  0.5000000E-15
   1.0000000000000000E-004
  CAR 
 unknown system                          
     29    136     18
 
  0.1262379E-14  0.1262379E-14  0.1262379E-14  0.3703704E-02
    1      -24.727590   1.000000
    2      -22.776666   1.000000
    3      -20.558727   1.000000
    4      -12.651366   1.000000
    5      -11.958691   1.000000
    6      -10.160642   1.000000
    7       -8.729404   1.000000
    8       -8.516392   1.000000
    9       -7.469440   1.000000
   10       -7.132180   1.000000
   11       -6.735466   1.000000
   12       -3.843970   1.000000
   13       -3.216386   1.000000
   14       -1.297912   1.000000
   15       -0.744747   0.963432
   16        0.599706   0.000000
   17        2.202833   0.000000
   18        2.820604   0.000000
 
  0.1111111E+00  0.1260284E-14  0.1289399E-14  0.7407407E-02
    1      -24.723992   1.000000
    2      -22.758494   1.000000
    3      -20.558952   1.000000
    4      -13.127111   1.000000
    5      -11.613973   1.000000
    6      -10.006277   1.000000
    7       -8.722472   1.000000
    8       -8.565375   1.000000
    9       -7.378605   1.000000
   10       -7.093794   1.000000
   11       -6.713457   1.000000
   12       -3.867379   1.000000
   13       -3.226784   1.000000
   14       -1.536410   1.000000
   15       -0.603846   0.015931
   16        0.437424   0.000000
   17        2.237119   0.000000
   18        2.748469   0.000000
 
  0.2222222E+00  0.1255699E-14  0.1268218E-14  0.7407407E-02
    1      -24.714912   1.000000
    2      -22.711449   1.000000
    3      -20.559783   1.000000
    4      -13.786234   1.000000
    5      -11.278219   1.000000
    6       -9.654495   1.000000
    7       -8.711865   1.000000
    8       -8.668823   1.000000
    9       -7.197549   1.000000
   10       -6.946432   1.000000
   11       -6.613053   1.000000
   12       -3.941974   1.000000
   13       -3.250780   1.000000
   14       -1.988332   1.000000
   15       -0.494489  -0.030379
   16        0.260109   0.000000
   17        2.291301   0.000000
   18        2.657991   0.000000
 
  0.3333333E+00  0.1243812E-14  0.1252388E-14  0.7407407E-02
    1      -24.704543   1.000000
    2      -22.655808   1.000000
    3      -20.561059   1.000000
    4      -14.302782   1.000000
    5      -11.084665   1.000000
    6       -9.379573   1.000000
    7       -8.768607   1.000000
    8       -8.664658   1.000000
    9       -7.077929   1.000000
   10       -6.795175   1.000000
   11       -6.308547   1.000000
   12       -4.069096   1.000000
   13       -3.268275   1.000000
   14       -2.387480   1.000000
   15       -0.768386   0.854321
   16        0.579052   0.000000
   17        2.290798   0.000000
   18        2.551149   0.000000
 
  0.4444444E+00  0.1306085E-14  0.1303935E-14  0.7407407E-02
    1      -24.697817   1.000000
    2      -22.618261   1.000000
    3      -20.562190   1.000000
    4      -14.582461   1.000000
    5      -10.987947   1.000000
    6       -9.308053   1.000000
    7       -8.758468   1.000000
    8       -8.641208   1.000000
    9       -7.012572   1.000000
   10       -6.739512   1.000000
   11       -5.997801   1.000000
   12       -4.190279   1.000000
   13       -3.268829   1.000000
   14       -2.597413   1.000000
   15       -1.023200   1.000000
   16        1.046776   0.000000
   17        2.095430   0.000000
   18        2.487005   0.000000
 
  0.1263764E-14  0.2000000E+00  0.1249336E-14  0.7407407E-02
    1      -24.727485   1.000000
    2      -22.776780   1.000000
    3      -20.558718   1.000000
    4      -12.649734   1.000000
    5      -11.958508   1.000000
    6      -10.161461   1.000000
    7       -8.739805   1.000000
    8       -8.517503   1.000000
    9       -7.486472   1.000000
   10       -7.101763   1.000000
   11       -6.731315   1.000000
   12       -3.826644   1.000000
   13       -3.216697   1.000000
   14       -1.371744   1.000000
   15       -0.741787   0.974006
   16        0.596550   0.000000
   17        2.342043   0.000000
   18        2.841309   0.000000
 
  0.1111111E+00  0.2000000E+00  0.1250984E-14  0.7407407E-02
    1      -24.723900   1.000000
    2      -22.758630   1.000000
    3      -20.558978   1.000000
    4      -13.125878   1.000000
    5      -11.613951   1.000000
    6      -10.005953   1.000000
    7       -8.733636   1.000000
    8       -8.565383   1.000000
    9       -7.377176   1.000000
   10       -7.076574   1.000000
   11       -6.719088   1.000000
   12       -3.843773   1.000000
   13       -3.226691   1.000000
   14       -1.603295   1.000000
   15       -0.616838   0.038295
   16        0.437435   0.000000
   17        2.387121   0.000000
   18        2.736597   0.000000
 
  0.2222222E+00  0.2000000E+00  0.1267574E-14  0.7407407E-02
    1      -24.714828   1.000000
    2      -22.711510   1.000000
    3      -20.559809   1.000000
    4      -13.785300   1.000000
    5      -11.278077   1.000000
    6       -9.653553   1.000000
    7       -8.720910   1.000000
    8       -8.669250   1.000000
    9       -7.164275   1.000000
   10       -6.965957   1.000000
   11       -6.618583   1.000000
   12       -3.910168   1.000000
   13       -3.250067   1.000000
   14       -2.050813   1.000000
   15       -0.520311  -0.001211
   16        0.258507   0.000000
   17        2.396282   0.000000
   18        2.694639   0.000000
 
  0.3333333E+00  0.2000000E+00  0.1203958E-14  0.7407407E-02
    1      -24.704511   1.000000
    2      -22.655871   1.000000
    3      -20.561207   1.000000
    4      -14.301949   1.000000
    5      -11.084455   1.000000
    6       -9.378158   1.000000
    7       -8.771884   1.000000
    8       -8.669390   1.000000
    9       -7.042601   1.000000
   10       -6.825613   1.000000
   11       -6.308200   1.000000
   12       -4.030127   1.000000
   13       -3.268377   1.000000
   14       -2.451598   1.000000
   15       -0.785965   0.893706
   16        0.557975   0.000000
   17        2.344960   0.000000
   18        2.659794   0.000000
 
  0.4444444E+00  0.2000000E+00  0.1254456E-14  0.7407407E-02
    1      -24.697810   1.000000
    2      -22.618291   1.000000
    3      -20.562402   1.000000
    4      -14.581694   1.000000
    5      -10.987726   1.000000
    6       -9.305699   1.000000
    7       -8.762241   1.000000
    8       -8.645851   1.000000
    9       -6.998149   1.000000
   10       -6.749772   1.000000
   11       -5.996698   1.000000
   12       -4.148177   1.000000
   13       -3.269814   1.000000
   14       -2.664264   1.000000
   15       -1.035055   1.000000
   16        1.005758   0.000000
   17        2.157653   0.000000
   18        2.614574   0.000000
 
 -0.4444444E+00  0.2000000E+00  0.1279173E-14  0.7407407E-02
    1      -24.697791   1.000000
    2      -22.618262   1.000000
    3      -20.562379   1.000000
    4      -14.581750   1.000000
    5      -10.987670   1.000000
    6       -9.304758   1.000000
    7       -8.761442   1.000000
    8       -8.649044   1.000000
    9       -7.018157   1.000000
   10       -6.727087   1.000000
   11       -5.996321   1.000000
   12       -4.149748   1.000000
   13       -3.268306   1.000000
   14       -2.666658   1.000000
   15       -1.032000   1.000000
   16        1.022437   0.000000
   17        2.141297   0.000000
   18        2.609143   0.000000
 
 -0.3333333E+00  0.2000000E+00  0.1226374E-14  0.7407407E-02
    1      -24.704462   1.000000
    2      -22.655795   1.000000
    3      -20.561183   1.000000
    4      -14.302070   1.000000
    5      -11.084048   1.000000
    6       -9.376437   1.000000
    7       -8.772326   1.000000
    8       -8.674629   1.000000
    9       -7.094925   1.000000
   10       -6.766763   1.000000
   11       -6.306094   1.000000
   12       -4.035839   1.000000
   13       -3.266524   1.000000
   14       -2.454600   1.000000
   15       -0.777551   0.876697
   16        0.581521   0.000000
   17        2.318991   0.000000
   18        2.667748   0.000000
 
 -0.2222222E+00  0.2000000E+00  0.1227498E-14  0.7407407E-02
    1      -24.714814   1.000000
    2      -22.711432   1.000000
    3      -20.559832   1.000000
    4      -13.785495   1.000000
    5      -11.277059   1.000000
    6       -9.654176   1.000000
    7       -8.720389   1.000000
    8       -8.673580   1.000000
    9       -7.226707   1.000000
   10       -6.906717   1.000000
   11       -6.604821   1.000000
   12       -3.919508   1.000000
   13       -3.249467   1.000000
   14       -2.050341   1.000000
   15       -0.504372  -0.021904
   16        0.268606   0.000000
   17        2.347855   0.000000
   18        2.761340   0.000000
 
 -0.1111111E+00  0.2000000E+00  0.1258996E-14  0.7407407E-02
    1      -24.723858   1.000000
    2      -22.758568   1.000000
    3      -20.558974   1.000000
    4      -13.126190   1.000000
    5      -11.612675   1.000000
    6      -10.007593   1.000000
    7       -8.732277   1.000000
    8       -8.567466   1.000000
    9       -7.407919   1.000000
   10       -7.055964   1.000000
   11       -6.702196   1.000000
   12       -3.851174   1.000000
   13       -3.226591   1.000000
   14       -1.599197   1.000000
   15       -0.607019   0.015759
   16        0.437201   0.000000
   17        2.330875   0.000000
   18        2.834638   0.000000
 
  0.1268072E-14  0.4000000E+00  0.1226469E-14  0.7407407E-02
    1      -24.727349   1.000000
    2      -22.777005   1.000000
    3      -20.558758   1.000000
    4      -12.647100   1.000000
    5      -11.958224   1.000000
    6      -10.162826   1.000000
    7       -8.756458   1.000000
    8       -8.519181   1.000000
    9       -7.509114   1.000000
   10       -7.058311   1.000000
   11       -6.724286   1.000000
   12       -3.796815   1.000000
   13       -3.217323   1.000000
   14       -1.488403   1.000000
   15       -0.736972   0.986716
   16        0.590718   0.000000
   17        2.602101   0.000000
   18        2.940868   0.000000
 
  0.1111111E+00  0.4000000E+00  0.1245071E-14  0.7407407E-02
    1      -24.723783   1.000000
    2      -22.758814   1.000000
    3      -20.559062   1.000000
    4      -13.124240   1.000000
    5      -11.612642   1.000000
    6      -10.007085   1.000000
    7       -8.750170   1.000000
    8       -8.567272   1.000000
    9       -7.404415   1.000000
   10       -7.029444   1.000000
   11       -6.711638   1.000000
   12       -3.810674   1.000000
   13       -3.226338   1.000000
   14       -1.709209   1.000000
   15       -0.623781   0.045637
   16        0.436539   0.000000
   17        2.579662   0.000000
   18        2.862206   0.000000
 
  0.2222222E+00  0.4000000E+00  0.1254460E-14  0.7407407E-02
    1      -24.714731   1.000000
    2      -22.711633   1.000000
    3      -20.559990   1.000000
    4      -13.784040   1.000000
    5      -11.276870   1.000000
    6       -9.652687   1.000000
    7       -8.735772   1.000000
    8       -8.673217   1.000000
    9       -7.184150   1.000000
   10       -6.926942   1.000000
   11       -6.614632   1.000000
   12       -3.864246   1.000000
   13       -3.247639   1.000000
   14       -2.156342   1.000000
   15       -0.541258   0.026370
   16        0.265560   0.000000
   17        2.495716   0.000000
   18        2.862688   0.000000
 
  0.3333333E+00  0.4000000E+00  0.1205246E-14  0.7407407E-02
    1      -24.704487   1.000000
    2      -22.655941   1.000000
    3      -20.561433   1.000000
    4      -14.300749   1.000000
    5      -11.083721   1.000000
    6       -9.374108   1.000000
    7       -8.778095   1.000000
    8       -8.681695   1.000000
    9       -7.044387   1.000000
   10       -6.809837   1.000000
   11       -6.305575   1.000000
   12       -3.966227   1.000000
   13       -3.265035   1.000000
   14       -2.566649   1.000000
   15       -0.803797   0.933873
   16        0.550098   0.000000
   17        2.418836   0.000000
   18        2.840645   0.000000
 
  0.4444444E+00  0.4000000E+00  0.1255744E-14  0.7407407E-02
    1      -24.697779   1.000000
    2      -22.618284   1.000000
    3      -20.562644   1.000000
    4      -14.580485   1.000000
    5      -10.987282   1.000000
    6       -9.300838   1.000000
    7       -8.767626   1.000000
    8       -8.656365   1.000000
    9       -6.995569   1.000000
   10       -6.743190   1.000000
   11       -5.994491   1.000000
   12       -4.072971   1.000000
   13       -3.267711   1.000000
   14       -2.785374   1.000000
   15       -1.049762   1.000000
   16        0.964460   0.000000
   17        2.265789   0.000000
   18        2.796506   0.000000
 
 -0.4444444E+00  0.4000000E+00  0.1141159E-14  0.7407407E-02
    1      -24.697757   1.000000
    2      -22.618252   1.000000
    3      -20.562641   1.000000
    4      -14.580520   1.000000
    5      -10.987236   1.000000
    6       -9.300229   1.000000
    7       -8.767179   1.000000
    8       -8.658323   1.000000
    9       -7.007937   1.000000
   10       -6.729145   1.000000
   11       -5.994224   1.000000
   12       -4.073941   1.000000
   13       -3.266756   1.000000
   14       -2.786785   1.000000
   15       -1.047959   1.000000
   16        0.974971   0.000000
   17        2.249943   0.000000
   18        2.796391   0.000000
 
 -0.3333333E+00  0.4000000E+00  0.1232538E-14  0.7407407E-02
    1      -24.704467   1.000000
    2      -22.655901   1.000000
    3      -20.561419   1.000000
    4      -14.300814   1.000000
    5      -11.083458   1.000000
    6       -9.372986   1.000000
    7       -8.778583   1.000000
    8       -8.684768   1.000000
    9       -7.076775   1.000000
   10       -6.773433   1.000000
   11       -6.304208   1.000000
   12       -3.969853   1.000000
   13       -3.264103   1.000000
   14       -2.567934   1.000000
   15       -0.799011   0.924597
   16        0.565255   0.000000
   17        2.392833   0.000000
   18        2.855120   0.000000
 
 -0.2222222E+00  0.4000000E+00  0.1240994E-14  0.7407407E-02
    1      -24.714744   1.000000
    2      -22.711632   1.000000
    3      -20.559984   1.000000
    4      -13.784153   1.000000
    5      -11.276260   1.000000
    6       -9.653075   1.000000
    7       -8.736032   1.000000
    8       -8.675352   1.000000
    9       -7.218245   1.000000
   10       -6.895188   1.000000
   11       -6.605795   1.000000
   12       -3.870177   1.000000
   13       -3.247540   1.000000
   14       -2.155120   1.000000
   15       -0.532203   0.012162
   16        0.271889   0.000000
   17        2.458025   0.000000
   18        2.920405   0.000000
 
 -0.1111111E+00  0.4000000E+00  0.1200666E-14  0.7407407E-02
    1      -24.723730   1.000000
    2      -22.758764   1.000000
    3      -20.559032   1.000000
    4      -13.124424   1.000000
    5      -11.611852   1.000000
    6      -10.008120   1.000000
    7       -8.749466   1.000000
    8       -8.568507   1.000000
    9       -7.420260   1.000000
   10       -7.020552   1.000000
   11       -6.700444   1.000000
   12       -3.815411   1.000000
   13       -3.226402   1.000000
   14       -1.706011   1.000000
   15       -0.618347   0.030911
   16        0.435954   0.000000
   17        2.519130   0.000000
   18        2.972016   0.000000
 
  0.1263874E-14  0.1260531E-14  0.1666667E+00  0.7407407E-02
    1      -24.727157   1.000000
    2      -22.777571   1.000000
    3      -20.558358   1.000000
    4      -12.650150   1.000000
    5      -11.957559   1.000000
    6      -10.161605   1.000000
    7       -8.747131   1.000000
    8       -8.516988   1.000000
    9       -7.455706   1.000000
   10       -7.117280   1.000000
   11       -6.740371   1.000000
   12       -3.846987   1.000000
   13       -3.214271   1.000000
   14       -1.318263   1.000000
   15       -0.732873   0.825943
   16        0.593352   0.000000
   17        2.257046   0.000000
   18        2.792911   0.000000
 
  0.1111111E+00  0.1248926E-14  0.1666667E+00  0.7407407E-02
    1      -24.723976   1.000000
    2      -22.758710   1.000000
    3      -20.558587   1.000000
    4      -13.131771   1.000000
    5      -11.604197   1.000000
    6      -10.008766   1.000000
    7       -8.730284   1.000000
    8       -8.566479   1.000000
    9       -7.376137   1.000000
   10       -7.075040   1.000000
   11       -6.726134   1.000000
   12       -3.870071   1.000000
   13       -3.229758   1.000000
   14       -1.525880   1.000000
   15       -0.630947   0.074937
   16        0.415188   0.000000
   17        2.254225   0.000000
   18        2.835535   0.000000
 
  0.2222222E+00  0.1253954E-14  0.1666667E+00  0.7407407E-02
    1      -24.715173   1.000000
    2      -22.711077   1.000000
    3      -20.559305   1.000000
    4      -13.791524   1.000000
    5      -11.265202   1.000000
    6       -9.657268   1.000000
    7       -8.707438   1.000000
    8       -8.679219   1.000000
    9       -7.172025   1.000000
   10       -6.966803   1.000000
   11       -6.618227   1.000000
   12       -3.943937   1.000000
   13       -3.266755   1.000000
   14       -1.940191   1.000000
   15       -0.544366   0.015075
   16        0.197951   0.000000
   17        2.279301   0.000000
   18        2.801596   0.000000
 
  0.3333333E+00  0.1252983E-14  0.1666667E+00  0.7407407E-02
    1      -24.704917   1.000000
    2      -22.655365   1.000000
    3      -20.560470   1.000000
    4      -14.307638   1.000000
    5      -11.071476   1.000000
    6       -9.374026   1.000000
    7       -8.776859   1.000000
    8       -8.673700   1.000000
    9       -7.032820   1.000000
   10       -6.838791   1.000000
   11       -6.308541   1.000000
   12       -4.066595   1.000000
   13       -3.302317   1.000000
   14       -2.325984   1.000000
   15       -0.776024   0.903830
   16        0.427436   0.000000
   17        2.257425   0.000000
   18        2.733243   0.000000
 
  0.4444444E+00  0.1298268E-14  0.1666667E+00  0.7407407E-02
    1      -24.697960   1.000000
    2      -22.618026   1.000000
    3      -20.561569   1.000000
    4      -14.585851   1.000000
    5      -10.978797   1.000000
    6       -9.294635   1.000000
    7       -8.769299   1.000000
    8       -8.653275   1.000000
    9       -7.002641   1.000000
   10       -6.743934   1.000000
   11       -5.999640   1.000000
   12       -4.183164   1.000000
   13       -3.304634   1.000000
   14       -2.555673   1.000000
   15       -1.017997   1.000000
   16        0.870564   0.000000
   17        2.118846   0.000000
   18        2.633645   0.000000
 
 -0.4444444E+00  0.1294041E-14  0.1666667E+00  0.7407407E-02
    1      -24.697832   1.000000
    2      -22.618497   1.000000
    3      -20.561819   1.000000
    4      -14.583571   1.000000
    5      -10.985828   1.000000
    6       -9.298783   1.000000
    7       -8.755540   1.000000
    8       -8.654327   1.000000
    9       -7.044195   1.000000
   10       -6.706204   1.000000
   11       -5.996725   1.000000
   12       -4.185168   1.000000
   13       -3.279584   1.000000
   14       -2.595374   1.000000
   15       -1.033735   1.000000
   16        1.021036   0.000000
   17        2.088606   0.000000
   18        2.573910   0.000000
 
 -0.3333333E+00  0.1272482E-14  0.1666667E+00  0.7407407E-02
    1      -24.704216   1.000000
    2      -22.656574   1.000000
    3      -20.560843   1.000000
    4      -14.301193   1.000000
    5      -11.089803   1.000000
    6       -9.370531   1.000000
    7       -8.761569   1.000000
    8       -8.677597   1.000000
    9       -7.136023   1.000000
   10       -6.726167   1.000000
   11       -6.312408   1.000000
   12       -4.066020   1.000000
   13       -3.256994   1.000000
   14       -2.426327   1.000000
   15       -0.791150   0.882599
   16        0.675297   0.000000
   17        2.288437   0.000000
   18        2.565278   0.000000
 
 -0.2222222E+00  0.1286473E-14  0.1666667E+00  0.7407407E-02
    1      -24.714305   1.000000
    2      -22.712631   1.000000
    3      -20.559458   1.000000
    4      -13.782165   1.000000
    5      -11.287337   1.000000
    6       -9.643428   1.000000
    7       -8.728843   1.000000
    8       -8.668302   1.000000
    9       -7.247448   1.000000
   10       -6.859874   1.000000
   11       -6.629408   1.000000
   12       -3.939693   1.000000
   13       -3.238164   1.000000
   14       -2.050760   1.000000
   15       -0.477592  -0.025535
   16        0.338881   0.000000
   17        2.336589   0.000000
   18        2.610042   0.000000
 
 -0.1111111E+00  0.1272419E-14  0.1666667E+00  0.7407407E-02
    1      -24.723336   1.000000
    2      -22.759853   1.000000
    3      -20.558633   1.000000
    4      -13.121383   1.000000
    5      -11.621583   1.000000
    6      -10.001752   1.000000
    7       -8.744746   1.000000
    8       -8.565550   1.000000
    9       -7.377125   1.000000
   10       -7.065018   1.000000
   11       -6.714182   1.000000
   12       -3.868459   1.000000
   13       -3.220501   1.000000
   14       -1.589163   1.000000
   15       -0.551796  -0.056749
   16        0.449960   0.000000
   17        2.304115   0.000000
   18        2.675754   0.000000
 
  0.1265638E-14  0.2000000E+00  0.1666667E+00  0.7407407E-02
    1      -24.727175   1.000000
    2      -22.777458   1.000000
    3      -20.558360   1.000000
    4      -12.651033   1.000000
    5      -11.957638   1.000000
    6      -10.161456   1.000000
    7       -8.737599   1.000000
    8       -8.517294   1.000000
    9       -7.489198   1.000000
   10       -7.119812   1.000000
   11       -6.706955   1.000000
   12       -3.874158   1.000000
   13       -3.214493   1.000000
   14       -1.252446   1.000000
   15       -0.734415   0.806254
   16        0.597003   0.000000
   17        2.211568   0.000000
   18        2.786245   0.000000
 
  0.1111111E+00  0.2000000E+00  0.1666667E+00  0.7407407E-02
    1      -24.723994   1.000000
    2      -22.758638   1.000000
    3      -20.558550   1.000000
    4      -13.132201   1.000000
    5      -11.605285   1.000000
    6      -10.007610   1.000000
    7       -8.722377   1.000000
    8       -8.565321   1.000000
    9       -7.395725   1.000000
   10       -7.082614   1.000000
   11       -6.705244   1.000000
   12       -3.893889   1.000000
   13       -3.229532   1.000000
   14       -1.475909   1.000000
   15       -0.624853   0.062111
   16        0.418035   0.000000
   17        2.248366   0.000000
   18        2.762942   0.000000
 
  0.2222222E+00  0.2000000E+00  0.1666667E+00  0.7407407E-02
    1      -24.715218   1.000000
    2      -22.711034   1.000000
    3      -20.559202   1.000000
    4      -13.791915   1.000000
    5      -11.266149   1.000000
    6       -9.656909   1.000000
    7       -8.701597   1.000000
    8       -8.675778   1.000000
    9       -7.175762   1.000000
   10       -6.976381   1.000000
   11       -6.612549   1.000000
   12       -3.969416   1.000000
   13       -3.265739   1.000000
   14       -1.896330   1.000000
   15       -0.539929   0.011431
   16        0.199950   0.000000
   17        2.293595   0.000000
   18        2.697558   0.000000
 
  0.3333333E+00  0.2000000E+00  0.1666667E+00  0.7407407E-02
    1      -24.704961   1.000000
    2      -22.655404   1.000000
    3      -20.560359   1.000000
    4      -14.308019   1.000000
    5      -11.071898   1.000000
    6       -9.376051   1.000000
    7       -8.773902   1.000000
    8       -8.667064   1.000000
    9       -7.013798   1.000000
   10       -6.863603   1.000000
   11       -6.307811   1.000000
   12       -4.099390   1.000000
   13       -3.301773   1.000000
   14       -2.278438   1.000000
   15       -0.775164   0.899495
   16        0.429452   0.000000
   17        2.268930   0.000000
   18        2.627937   0.000000
 
  0.4444444E+00  0.2000000E+00  0.1666667E+00  0.7407407E-02
    1      -24.698091   1.000000
    2      -22.618079   1.000000
    3      -20.561490   1.000000
    4      -14.586257   1.000000
    5      -10.978863   1.000000
    6       -9.296731   1.000000
    7       -8.767292   1.000000
    8       -8.648442   1.000000
    9       -6.990053   1.000000
   10       -6.756639   1.000000
   11       -5.999276   1.000000
   12       -4.222905   1.000000
   13       -3.307124   1.000000
   14       -2.502500   1.000000
   15       -1.016960   1.000000
   16        0.886509   0.000000
   17        2.103419   0.000000
   18        2.531574   0.000000
 
 -0.4444444E+00  0.2000000E+00  0.1666667E+00  0.7407407E-02
    1      -24.697819   1.000000
    2      -22.618450   1.000000
    3      -20.561671   1.000000
    4      -14.584009   1.000000
    5      -10.985781   1.000000
    6       -9.299724   1.000000
    7       -8.752864   1.000000
    8       -8.652688   1.000000
    9       -7.050603   1.000000
   10       -6.696819   1.000000
   11       -5.995926   1.000000
   12       -4.226772   1.000000
   13       -3.284323   1.000000
   14       -2.540867   1.000000
   15       -1.029410   1.000000
   16        1.064339   0.000000
   17        2.047540   0.000000
   18        2.468894   0.000000
 
 -0.3333333E+00  0.2000000E+00  0.1666667E+00  0.7407407E-02
    1      -24.704148   1.000000
    2      -22.656496   1.000000
    3      -20.560753   1.000000
    4      -14.301706   1.000000
    5      -11.089736   1.000000
    6       -9.370705   1.000000
    7       -8.759340   1.000000
    8       -8.676242   1.000000
    9       -7.161700   1.000000
   10       -6.698838   1.000000
   11       -6.309666   1.000000
   12       -4.105480   1.000000
   13       -3.259745   1.000000
   14       -2.377159   1.000000
   15       -0.781524   0.862113
   16        0.711269   0.000000
   17        2.286570   0.000000
   18        2.450876   0.000000
 
 -0.2222222E+00  0.2000000E+00  0.1666667E+00  0.7407407E-02
    1      -24.714284   1.000000
    2      -22.712580   1.000000
    3      -20.559457   1.000000
    4      -13.782808   1.000000
    5      -11.287156   1.000000
    6       -9.643972   1.000000
    7       -8.722882   1.000000
    8       -8.668983   1.000000
    9       -7.290278   1.000000
   10       -6.834908   1.000000
   11       -6.608054   1.000000
   12       -3.975548   1.000000
   13       -3.238781   1.000000
   14       -2.006300   1.000000
   15       -0.457380  -0.042068
   16        0.359633   0.000000
   17        2.297678   0.000000
   18        2.565964   0.000000
 
 -0.1111111E+00  0.2000000E+00  0.1666667E+00  0.7407407E-02
    1      -24.723357   1.000000
    2      -22.759733   1.000000
    3      -20.558615   1.000000
    4      -13.122166   1.000000
    5      -11.621220   1.000000
    6      -10.002523   1.000000
    7       -8.735858   1.000000
    8       -8.566507   1.000000
    9       -7.423602   1.000000
   10       -7.053494   1.000000
   11       -6.677932   1.000000
   12       -3.900267   1.000000
   13       -3.220597   1.000000
   14       -1.540128   1.000000
   15       -0.528943  -0.068311
   16        0.454996   0.000000
   17        2.240378   0.000000
   18        2.680536   0.000000
 
  0.1267046E-14  0.4000000E+00  0.1666667E+00  0.7407407E-02
    1      -24.727066   1.000000
    2      -22.777615   1.000000
    3      -20.558377   1.000000
    4      -12.648907   1.000000
    5      -11.957402   1.000000
    6      -10.162474   1.000000
    7       -8.750826   1.000000
    8       -8.518877   1.000000
    9       -7.511805   1.000000
   10       -7.089342   1.000000
   11       -6.689981   1.000000
   12       -3.857259   1.000000
   13       -3.214648   1.000000
   14       -1.343767   1.000000
   15       -0.730231   0.813357
   16        0.592287   0.000000
   17        2.429428   0.000000
   18        2.819645   0.000000
 
  0.1111111E+00  0.4000000E+00  0.1666667E+00  0.7407407E-02
    1      -24.723898   1.000000
    2      -22.758802   1.000000
    3      -20.558593   1.000000
    4      -13.130706   1.000000
    5      -11.604935   1.000000
    6      -10.007672   1.000000
    7       -8.734995   1.000000
    8       -8.566583   1.000000
    9       -7.425500   1.000000
   10       -7.048010   1.000000
   11       -6.687458   1.000000
   12       -3.873112   1.000000
   13       -3.229349   1.000000
   14       -1.553531   1.000000
   15       -0.637681   0.094176
   16        0.418397   0.000000
   17        2.479531   0.000000
   18        2.759092   0.000000
 
  0.2222222E+00  0.4000000E+00  0.1666667E+00  0.7407407E-02
    1      -24.715126   1.000000
    2      -22.711177   1.000000
    3      -20.559315   1.000000
    4      -13.790803   1.000000
    5      -11.265836   1.000000
    6       -9.655633   1.000000
    7       -8.713491   1.000000
    8       -8.676810   1.000000
    9       -7.209536   1.000000
   10       -6.933956   1.000000
   11       -6.603695   1.000000
   12       -3.939152   1.000000
   13       -3.264227   1.000000
   14       -1.973021   1.000000
   15       -0.562158   0.046484
   16        0.205883   0.000000
   17        2.451784   0.000000
   18        2.751800   0.000000
 
  0.3333333E+00  0.4000000E+00  0.1666667E+00  0.7407407E-02
    1      -24.704939   1.000000
    2      -22.655448   1.000000
    3      -20.560534   1.000000
    4      -14.307032   1.000000
    5      -11.071643   1.000000
    6       -9.373398   1.000000
    7       -8.777303   1.000000
    8       -8.675562   1.000000
    9       -7.036350   1.000000
   10       -6.831802   1.000000
   11       -6.304837   1.000000
   12       -4.057594   1.000000
   13       -3.302456   1.000000
   14       -2.357609   1.000000
   15       -0.793710   0.941336
   16        0.422541   0.000000
   17        2.364203   0.000000
   18        2.751127   0.000000
 
  0.4444444E+00  0.4000000E+00  0.1666667E+00  0.7407407E-02
    1      -24.698080   1.000000
    2      -22.618142   1.000000
    3      -20.561720   1.000000
    4      -14.585273   1.000000
    5      -10.978579   1.000000