 running on    1 total cores
 distrk:  each k-point on    1 cores,    1 groups
 distr:  one band on    1 cores,    1 groups
 OpenACC runtime initialized ...    1 GPUs detected
 vasp.6.2.0 18Jan21 (build Feb 25 2021 07:51:20) complex                         
 POSCAR found type information on POSCAR SiN 
 POSCAR found :  2 types and       6 ions
 scaLAPACK will be used selectively (only on CPU)
 LDA part: xc-table for Pade appr. of Perdew
 POSCAR, INCAR and KPOINTS ok, starting setup
 FFT: planning ...
 WAVECAR not read
 entering main loop
       N       E                     dE             d eps       ncg     rms          rms(c)
DAV:   1     0.211968605366E+03    0.21197E+03   -0.12877E+04  4896   0.128E+03
DAV:   2    -0.221505306683E+02   -0.23412E+03   -0.23106E+03  6852   0.294E+02
DAV:   3    -0.456513137049E+02   -0.23501E+02   -0.23292E+02  5994   0.110E+02
DAV:   4    -0.461728000843E+02   -0.52149E+00   -0.51443E+00  6932   0.169E+01
DAV:   5    -0.461818474111E+02   -0.90473E-02   -0.89449E-02  6338   0.202E+00    0.135E+01
RMM:   6    -0.434055019251E+02    0.27763E+01   -0.85817E+00  4997   0.175E+01    0.716E+00
RMM:   7    -0.432283333625E+02    0.17717E+00   -0.18927E+00  5069   0.941E+00    0.393E+00
RMM:   8    -0.431946055235E+02    0.33728E-01   -0.37069E-01  5210   0.413E+00    0.136E+00
RMM:   9    -0.431957456498E+02   -0.11401E-02   -0.82788E-02  5166   0.201E+00    0.282E-01
RMM:  10    -0.431978361341E+02   -0.20905E-02   -0.21877E-02  5942   0.888E-01    0.188E-01
RMM:  11    -0.431979041152E+02   -0.67981E-04   -0.25606E-03  5224   0.381E-01    0.830E-02
RMM:  12    -0.431980066456E+02   -0.10253E-03   -0.76619E-04  4685   0.218E-01    0.315E-02
RMM:  13    -0.431980044100E+02    0.22356E-05   -0.18242E-04  2998   0.967E-02
   1 F= -.43198004E+02 E0= -.43198004E+02  d E =-.431980E+02
 curvature:   0.00 expect dE= 0.000E+00 dE for cont linesearch  0.000E+00
 trial: gam= 0.00000 g(F)=  0.294E-01 g(S)=  0.124E-01 ort = 0.000E+00 (trialstep = 0.100E+01)
 search vector abs. value=  0.418E-01
 bond charge predicted
 -----------------------------------------------------------------------------
|                                                                             |
|           W    W    AA    RRRRR   N    N  II  N    N   GGGG   !!!           |
|           W    W   A  A   R    R  NN   N  II  NN   N  G    G  !!!           |
|           W    W  A    A  R    R  N N  N  II  N N  N  G       !!!           |
|           W WW W  AAAAAA  RRRRR   N  N N  II  N  N N  G  GGG   !            |
|           WW  WW  A    A  R   R   N   NN  II  N   NN  G    G                |
|           W    W  A    A  R    R  N    N  II  N    N   GGGG   !!!           |
|                                                                             |
|     Tetrahedron method does not include variations of the Fermi             |
|     occupations, so forces and stress will be inaccurate. We suggest        |
|     using a different smearing scheme ISMEAR = 1 or 2 for metals in         |
|     relaxations.                                                            |
|                                                                             |
 -----------------------------------------------------------------------------

       N       E                     dE             d eps       ncg     rms          rms(c)
DAV:   1    -0.431803218159E+02    0.17685E-01   -0.69630E+00  5052   0.229E+01    0.140E+00
RMM:   2    -0.431663315048E+02    0.13990E-01   -0.19995E-01  4965   0.419E+00    0.667E-01
RMM:   3    -0.431600540236E+02    0.62775E-02   -0.61161E-02  5076   0.195E+00    0.216E-01
RMM:   4    -0.431600344544E+02    0.19569E-04   -0.91220E-03  5253   0.792E-01    0.130E-01
RMM:   5    -0.431599951320E+02    0.39322E-04   -0.19528E-03  5251   0.349E-01    0.756E-02
RMM:   6    -0.431599964014E+02   -0.12694E-05   -0.49803E-04  4011   0.176E-01
   2 F= -.43159996E+02 E0= -.43159996E+02  d E =0.380080E-01
 trial-energy change:    0.038008  1 .order    0.038015   -0.041767    0.117798
 step:   0.2618(harm=  0.2618)  dis= 0.00323  next Energy=   -43.203471 (dE=-0.547E-02)
 bond charge predicted
 -----------------------------------------------------------------------------
|                                                                             |
|           W    W    AA    RRRRR   N    N  II  N    N   GGGG   !!!           |
|           W    W   A  A   R    R  NN   N  II  NN   N  G    G  !!!           |
|           W    W  A    A  R    R  N N  N  II  N N  N  G       !!!           |
|           W WW W  AAAAAA  RRRRR   N  N N  II  N  N N  G  GGG   !            |
|           WW  WW  A    A  R   R   N   NN  II  N   NN  G    G                |
|           W    W  A    A  R    R  N    N  II  N    N   GGGG   !!!           |
|                                                                             |
|     Tetrahedron method does not include variations of the Fermi             |
|     occupations, so forces and stress will be inaccurate. We suggest        |
|     using a different smearing scheme ISMEAR = 1 or 2 for metals in         |
|     relaxations.                                                            |
|                                                                             |
 -----------------------------------------------------------------------------

       N       E                     dE             d eps       ncg     rms          rms(c)
DAV:   1    -0.432159482459E+02   -0.55953E-01   -0.38284E+00  4952   0.171E+01    0.105E+00
RMM:   2    -0.432066646381E+02    0.92836E-02   -0.10827E-01  4954   0.307E+00    0.492E-01
RMM:   3    -0.432033954851E+02    0.32692E-02   -0.33438E-02  5047   0.144E+00    0.172E-01
RMM:   4    -0.432034292398E+02   -0.33755E-04   -0.47484E-03  5172   0.590E-01    0.103E-01
RMM:   5    -0.432034371065E+02   -0.78667E-05   -0.11031E-03  5093   0.263E-01    0.626E-02
RMM:   6    -0.432034470982E+02   -0.99917E-05   -0.26885E-04  3155   0.132E-01
   3 F= -.43203447E+02 E0= -.43203447E+02  d E =-.544269E-02
 curvature:  -0.13 expect dE=-0.721E-02 dE for cont linesearch -0.474E-06
 trial: gam= 1.32893 g(F)=  0.429E-01 g(S)=  0.122E-01 ort =-0.389E-03 (trialstep = 0.278E+00)
 search vector abs. value=  0.128E+00
 bond charge predicted
 -----------------------------------------------------------------------------
|                                                                             |
|           W    W    AA    RRRRR   N    N  II  N    N   GGGG   !!!           |
|           W    W   A  A   R    R  NN   N  II  NN   N  G    G  !!!           |
|           W    W  A    A  R    R  N N  N  II  N N  N  G       !!!           |
|           W WW W  AAAAAA  RRRRR   N  N N  II  N  N N  G  GGG   !            |
|           WW  WW  A    A  R   R   N   NN  II  N   NN  G    G                |
|           W    W  A    A  R    R  N    N  II  N    N   GGGG   !!!           |
|                                                                             |
|     Tetrahedron method does not include variations of the Fermi             |
|     occupations, so forces and stress will be inaccurate. We suggest        |
|     using a different smearing scheme ISMEAR = 1 or 2 for metals in         |
|     relaxations.                                                            |
|                                                                             |
 -----------------------------------------------------------------------------

       N       E                     dE             d eps       ncg     rms          rms(c)
DAV:   1    -0.432180473438E+02   -0.14610E-01   -0.11861E+00  4926   0.936E+00    0.646E-01
RMM:   2    -0.432117035321E+02    0.63438E-02   -0.26955E-02  4896   0.144E+00    0.289E-01
RMM:   3    -0.432107077461E+02    0.99579E-03   -0.10711E-02  5026   0.751E-01    0.936E-02
RMM:   4    -0.432106808801E+02    0.26866E-04   -0.16763E-03  5300   0.324E-01    0.528E-02
RMM:   5    -0.432106280772E+02    0.52803E-04   -0.25819E-04  2976   0.138E-01
   4 F= -.43210628E+02 E0= -.43210628E+02  d E =-.718098E-02
 trial-energy change:   -0.007181  1 .order   -0.007388   -0.015204    0.000427
 step:   0.2709(harm=  0.2709)  dis= 0.00551  next Energy=   -43.210841 (dE=-0.739E-02)
 bond charge predicted
 -----------------------------------------------------------------------------
|                                                                             |
|           W    W    AA    RRRRR   N    N  II  N    N   GGGG   !!!           |
|           W    W   A  A   R    R  NN   N  II  NN   N  G    G  !!!           |
|           W    W  A    A  R    R  N N  N  II  N N  N  G       !!!           |
|           W WW W  AAAAAA  RRRRR   N  N N  II  N  N N  G  GGG   !            |
|           WW  WW  A    A  R   R   N   NN  II  N   NN  G    G                |
|           W    W  A    A  R    R  N    N  II  N    N   GGGG   !!!           |
|                                                                             |
|     Tetrahedron method does not include variations of the Fermi             |
|     occupations, so forces and stress will be inaccurate. We suggest        |
|     using a different smearing scheme ISMEAR = 1 or 2 for metals in         |
|     relaxations.                                                            |
|                                                                             |
 -----------------------------------------------------------------------------

       N       E                     dE             d eps       ncg     rms          rms(c)
DAV:   1    -0.432106401177E+02    0.40762E-04   -0.99703E-04  6058   0.273E-01    0.211E-02
RMM:   2    -0.432106368127E+02    0.33050E-05   -0.23446E-05  2718   0.424E-02
   5 F= -.43210637E+02 E0= -.43210637E+02  d E =-.718971E-02
 curvature:  -0.32 expect dE=-0.974E-02 dE for cont linesearch -0.299E-05
 trial: gam= 0.59799 g(F)=  0.281E-01 g(S)=  0.258E-02 ort =-0.110E-02 (trialstep = 0.277E+00)
 search vector abs. value=  0.751E-01
 bond charge predicted
 -----------------------------------------------------------------------------
|                                                                             |
|           W    W    AA    RRRRR   N    N  II  N    N   GGGG   !!!           |
|           W    W   A  A   R    R  NN   N  II  NN   N  G    G  !!!           |
|           W    W  A    A  R    R  N N  N  II  N N  N  G       !!!           |
|           W WW W  AAAAAA  RRRRR   N  N N  II  N  N N  G  GGG   !            |
|           WW  WW  A    A  R   R   N   NN  II  N   NN  G    G                |
|           W    W  A    A  R    R  N    N  II  N    N   GGGG   !!!           |
|                                                                             |
|     Tetrahedron method does not include variations of the Fermi             |
|     occupations, so forces and stress will be inaccurate. We suggest        |
|     using a different smearing scheme ISMEAR = 1 or 2 for metals in         |
|     relaxations.                                                            |
|                                                                             |
 -----------------------------------------------------------------------------

       N       E                     dE             d eps       ncg     rms          rms(c)
DAV:   1    -0.432153301083E+02   -0.46900E-02   -0.89053E-01  4896   0.818E+00    0.404E-01
RMM:   2    -0.432137840345E+02    0.15461E-02   -0.19058E-02  4896   0.125E+00    0.193E-01
RMM:   3    -0.432134062248E+02    0.37781E-03   -0.53754E-03  4990   0.593E-01    0.713E-02
RMM:   4    -0.432134238061E+02   -0.17581E-04   -0.91802E-04  4919   0.251E-01
   6 F= -.43213424E+02 E0= -.43213424E+02  d E =-.278699E-02
 trial-energy change:   -0.002787  1 .order   -0.003006   -0.008328    0.002316
 step:   0.2167(harm=  0.2167)  dis= 0.00334  next Energy=   -43.213895 (dE=-0.326E-02)
 bond charge predicted
 -----------------------------------------------------------------------------
|                                                                             |
|           W    W    AA    RRRRR   N    N  II  N    N   GGGG   !!!           |
|           W    W   A  A   R    R  NN   N  II  NN   N  G    G  !!!           |
|           W    W  A    A  R    R  N N  N  II  N N  N  G       !!!           |
|           W WW W  AAAAAA  RRRRR   N  N N  II  N  N N  G  GGG   !            |
|           WW  WW  A    A  R   R   N   NN  II  N   NN  G    G                |
|           W    W  A    A  R    R  N    N  II  N    N   GGGG   !!!           |
|                                                                             |
|     Tetrahedron method does not include variations of the Fermi             |
|     occupations, so forces and stress will be inaccurate. We suggest        |
|     using a different smearing scheme ISMEAR = 1 or 2 for metals in         |
|     relaxations.                                                            |
|                                                                             |
 -----------------------------------------------------------------------------

       N       E                     dE             d eps       ncg     rms          rms(c)
DAV:   1    -0.432138118994E+02   -0.40567E-03   -0.43058E-02  4932   0.181E+00    0.834E-02
RMM:   2    -0.432137496475E+02    0.62252E-04   -0.85448E-04  4826   0.266E-01
   7 F= -.43213750E+02 E0= -.43213750E+02  d E =-.311283E-02
 curvature:  -0.27 expect dE=-0.662E-02 dE for cont linesearch -0.201E-04
 trial: gam= 0.79702 g(F)=  0.200E-01 g(S)=  0.450E-02 ort =-0.236E-02 (trialstep = 0.265E+00)
 search vector abs. value=  0.684E-01
 bond charge predicted
 -----------------------------------------------------------------------------
|                                                                             |
|           W    W    AA    RRRRR   N    N  II  N    N   GGGG   !!!           |
|           W    W   A  A   R    R  NN   N  II  NN   N  G    G  !!!           |
|           W    W  A    A  R    R  N N  N  II  N N  N  G       !!!           |
|           W WW W  AAAAAA  RRRRR   N  N N  II  N  N N  G  GGG   !            |
|           WW  WW  A    A  R   R   N   NN  II  N   NN  G    G                |
|           W    W  A    A  R    R  N    N  II  N    N   GGGG   !!!           |
|                                                                             |
|     Tetrahedron method does not include variations of the Fermi             |
|     occupations, so forces and stress will be inaccurate. We suggest        |
|     using a different smearing scheme ISMEAR = 1 or 2 for metals in         |
|     relaxations.                                                            |
|                                                                             |
 -----------------------------------------------------------------------------

       N       E                     dE             d eps       ncg     rms          rms(c)
DAV:   1    -0.432193157218E+02   -0.55038E-02   -0.65445E-01  4896   0.688E+00    0.227E-01
RMM:   2    -0.432193160017E+02   -0.27990E-06   -0.87265E-03  4919   0.839E-01    0.110E-01
RMM:   3    -0.432192498901E+02    0.66112E-04   -0.19015E-03  5022   0.377E-01    0.430E-02
RMM:   4    -0.432192617866E+02   -0.11897E-04   -0.36327E-04  3470   0.158E-01
   8 F= -.43219262E+02 E0= -.43219262E+02  d E =-.551214E-02
 ZBRENT: can't locate minimum, use default step
 trial-energy change:   -0.005512  1 .order   -0.005537   -0.005978   -0.005095
 step:   1.0596(harm=  1.7932)  dis= 0.02929  next Energy=   -43.233986 (dE=-0.202E-01)
 bond charge predicted
 -----------------------------------------------------------------------------
|                                                                             |
|           W    W    AA    RRRRR   N    N  II  N    N   GGGG   !!!           |
|           W    W   A  A   R    R  NN   N  II  NN   N  G    G  !!!           |
|           W    W  A    A  R    R  N N  N  II  N N  N  G       !!!           |
|           W WW W  AAAAAA  RRRRR   N  N N  II  N  N N  G  GGG   !            |
|           WW  WW  A    A  R   R   N   NN  II  N   NN  G    G                |
|           W    W  A    A  R    R  N    N  II  N    N   GGGG   !!!           |
|                                                                             |
|     Tetrahedron method does not include variations of the Fermi             |
|     occupations, so forces and stress will be inaccurate. We suggest        |
|     using a different smearing scheme ISMEAR = 1 or 2 for metals in         |
|     relaxations.                                                            |
|                                                                             |
 -----------------------------------------------------------------------------

       N       E                     dE             d eps       ncg     rms          rms(c)
DAV:   1    -0.432290109964E+02   -0.97611E-02   -0.58317E+00  4896   0.206E+01    0.671E-01
RMM:   2    -0.432294671090E+02   -0.45611E-03   -0.78387E-02  4934   0.252E+00    0.337E-01
RMM:   3    -0.432287884142E+02    0.67869E-03   -0.16319E-02  5042   0.111E+00    0.134E-01
RMM:   4    -0.432288851536E+02   -0.96739E-04   -0.35594E-03  5330   0.473E-01    0.813E-02
RMM:   5    -0.432288736281E+02    0.11526E-04   -0.61789E-04  4384   0.204E-01
   9 F= -.43228874E+02 E0= -.43228874E+02  d E =-.151240E-01
 curvature:  -2.09 expect dE=-0.790E-01 dE for cont linesearch -0.130E-02
 trial: gam= 1.12244 g(F)=  0.289E-01 g(S)=  0.884E-02 ort = 0.652E-02 (trialstep = 0.209E+00)
 search vector abs. value=  0.139E+00
 bond charge predicted
 -----------------------------------------------------------------------------
|                                                                             |
|           W    W    AA    RRRRR   N    N  II  N    N   GGGG   !!!           |
|           W    W   A  A   R    R  NN   N  II  NN   N  G    G  !!!           |
|           W    W  A    A  R    R  N N  N  II  N N  N  G       !!!           |
|           W WW W  AAAAAA  RRRRR   N  N N  II  N  N N  G  GGG   !            |
|           WW  WW  A    A  R   R   N   NN  II  N   NN  G    G                |
|           W    W  A    A  R    R  N    N  II  N    N   GGGG   !!!           |
|                                                                             |
|     Tetrahedron method does not include variations of the Fermi             |
|     occupations, so forces and stress will be inaccurate. We suggest        |
|     using a different smearing scheme ISMEAR = 1 or 2 for metals in         |
|     relaxations.                                                            |
|                                                                             |
 -----------------------------------------------------------------------------

       N       E                     dE             d eps       ncg     rms          rms(c)
DAV:   1    -0.432345757156E+02   -0.56906E-02   -0.73772E-01  4968   0.742E+00    0.297E-01
RMM:   2    -0.432340220244E+02    0.55369E-03   -0.12156E-02  4962   0.990E-01    0.150E-01
RMM:   3    -0.432339459291E+02    0.76095E-04   -0.21033E-03  5157   0.384E-01    0.806E-02
RMM:   4    -0.432339271541E+02    0.18775E-04   -0.47721E-04  4024   0.172E-01
  10 F= -.43233927E+02 E0= -.43233927E+02  d E =-.505353E-02
 trial-energy change:   -0.005054  1 .order   -0.005758   -0.009433   -0.002083
 step:   0.2685(harm=  0.2685)  dis= 0.01091  next Energy=   -43.234927 (dE=-0.605E-02)
 bond charge predicted
 -----------------------------------------------------------------------------
|                                                                             |
|           W    W    AA    RRRRR   N    N  II  N    N   GGGG   !!!           |
|           W    W   A  A   R    R  NN   N  II  NN   N  G    G  !!!           |
|           W    W  A    A  R    R  N N  N  II  N N  N  G       !!!           |
|           W WW W  AAAAAA  RRRRR   N  N N  II  N  N N  G  GGG   !            |
|           WW  WW  A    A  R   R   N   NN  II  N   NN  G    G                |
|           W    W  A    A  R    R  N    N  II  N    N   GGGG   !!!           |
|                                                                             |
|     Tetrahedron method does not include variations of the Fermi             |
|     occupations, so forces and stress will be inaccurate. We suggest        |
|     using a different smearing scheme ISMEAR = 1 or 2 for metals in         |
|     relaxations.                                                            |
|                                                                             |
 -----------------------------------------------------------------------------

       N       E                     dE             d eps       ncg     rms          rms(c)
DAV:   1    -0.432340502831E+02   -0.10435E-03   -0.59005E-02  5440   0.210E+00    0.883E-02
RMM:   2    -0.432340687097E+02   -0.18427E-04   -0.10402E-03  4843   0.289E-01    0.479E-02
RMM:   3    -0.432340707701E+02   -0.20604E-05   -0.16917E-04  2902   0.111E-01
  11 F= -.43234071E+02 E0= -.43234071E+02  d E =-.519714E-02
 curvature:  -0.41 expect dE=-0.121E-01 dE for cont linesearch -0.389E-08
 trial: gam= 1.04568 g(F)=  0.206E-01 g(S)=  0.868E-02 ort = 0.362E-04 (trialstep = 0.169E+00)
 search vector abs. value=  0.181E+00
 bond charge predicted
 -----------------------------------------------------------------------------
|                                                                             |
|           W    W    AA    RRRRR   N    N  II  N    N   GGGG   !!!           |
|           W    W   A  A   R    R  NN   N  II  NN   N  G    G  !!!           |
|           W    W  A    A  R    R  N N  N  II  N N  N  G       !!!           |
|           W WW W  AAAAAA  RRRRR   N  N N  II  N  N N  G  GGG   !            |
|           WW  WW  A    A  R   R   N   NN  II  N   NN  G    G                |
|           W    W  A    A  R    R  N    N  II  N    N   GGGG   !!!           |
|                                                                             |
|     Tetrahedron method does not include variations of the Fermi             |
|     occupations, so forces and stress will be inaccurate. We suggest        |
|     using a different smearing scheme ISMEAR = 1 or 2 for metals in         |
|     relaxations.                                                            |
|                                                                             |
 -----------------------------------------------------------------------------

       N       E                     dE             d eps       ncg     rms          rms(c)
DAV:   1    -0.432375605019E+02   -0.34918E-02   -0.68443E-01  4896   0.707E+00    0.283E-01
RMM:   2    -0.432372090002E+02    0.35150E-03   -0.12161E-02  4960   0.967E-01    0.130E-01
RMM:   3    -0.432371769282E+02    0.32072E-04   -0.22020E-03  5287   0.385E-01    0.635E-02
RMM:   4    -0.432371697438E+02    0.71844E-05   -0.40913E-04  3686   0.163E-01
  12 F= -.43237170E+02 E0= -.43237170E+02  d E =-.309897E-02
 trial-energy change:   -0.003099  1 .order   -0.003453   -0.004969   -0.001938
 step:   0.2776(harm=  0.2776)  dis= 0.01314  next Energy=   -43.238144 (dE=-0.407E-02)
 bond charge predicted
 -----------------------------------------------------------------------------
|                                                                             |
|           W    W    AA    RRRRR   N    N  II  N    N   GGGG   !!!           |
|           W    W   A  A   R    R  NN   N  II  NN   N  G    G  !!!           |
|           W    W  A    A  R    R  N N  N  II  N N  N  G       !!!           |
|           W WW W  AAAAAA  RRRRR   N  N N  II  N  N N  G  GGG   !            |
|           WW  WW  A    A  R   R   N   NN  II  N   NN  G    G                |
|           W    W  A    A  R    R  N    N  II  N    N   GGGG   !!!           |
|                                                                             |
|     Tetrahedron method does not include variations of the Fermi             |
|     occupations, so forces and stress will be inaccurate. We suggest        |
|     using a different smearing scheme ISMEAR = 1 or 2 for metals in         |
|     relaxations.                                                            |
|                                                                             |
 -----------------------------------------------------------------------------

       N       E                     dE             d eps       ncg     rms          rms(c)
DAV:   1    -0.432378548314E+02   -0.67790E-03   -0.27898E-01  4932   0.452E+00    0.179E-01
RMM:   2    -0.432377027432E+02    0.15209E-03   -0.49936E-03  4960   0.620E-01    0.856E-02
RMM:   3    -0.432376745215E+02    0.28222E-04   -0.90451E-04  4923   0.247E-01
  13 F= -.43237675E+02 E0= -.43237675E+02  d E =-.360375E-02
 curvature:  -0.86 expect dE=-0.483E-01 dE for cont linesearch -0.185E-05
 trial: gam= 1.65129 g(F)=  0.456E-01 g(S)=  0.108E-01 ort = 0.626E-03 (trialstep = 0.626E-01)
 search vector abs. value=  0.552E+00
 bond charge predicted
 -----------------------------------------------------------------------------
|                                                                             |
|           W    W    AA    RRRRR   N    N  II  N    N   GGGG   !!!           |
|           W    W   A  A   R    R  NN   N  II  NN   N  G    G  !!!           |
|           W    W  A    A  R    R  N N  N  II  N N  N  G       !!!           |
|           W WW W  AAAAAA  RRRRR   N  N N  II  N  N N  G  GGG   !            |
|           WW  WW  A    A  R   R   N   NN  II  N   NN  G    G                |
|           W    W  A    A  R    R  N    N  II  N    N   GGGG   !!!           |
|                                                                             |
|     Tetrahedron method does not include variations of the Fermi             |
|     occupations, so forces and stress will be inaccurate. We suggest        |
|     using a different smearing scheme ISMEAR = 1 or 2 for metals in         |
|     relaxations.                                                            |
|                                                                             |
 -----------------------------------------------------------------------------

       N       E                     dE             d eps       ncg     rms          rms(c)
DAV:   1    -0.432411159058E+02   -0.34132E-02   -0.28322E-01  4904   0.448E+00    0.162E-01
RMM:   2    -0.432410772390E+02    0.38667E-04   -0.41575E-03  4908   0.562E-01    0.812E-02
RMM:   3    -0.432410517513E+02    0.25488E-04   -0.83786E-04  4659   0.232E-01
  14 F= -.43241052E+02 E0= -.43241052E+02  d E =-.337723E-02
 ZBRENT: can't locate minimum, use default step
 trial-energy change:   -0.003377  1 .order   -0.003403   -0.003598   -0.003208
 step:   0.2505(harm=  0.5766)  dis= 0.01980  next Energy=   -43.254244 (dE=-0.166E-01)
 bond charge predicted
 -----------------------------------------------------------------------------
|                                                                             |
|           W    W    AA    RRRRR   N    N  II  N    N   GGGG   !!!           |
|           W    W   A  A   R    R  NN   N  II  NN   N  G    G  !!!           |
|           W    W  A    A  R    R  N N  N  II  N N  N  G       !!!           |
|           W WW W  AAAAAA  RRRRR   N  N N  II  N  N N  G  GGG   !            |
|           WW  WW  A    A  R   R   N   NN  II  N   NN  G    G                |
|           W    W  A    A  R    R  N    N  II  N    N   GGGG   !!!           |
|                                                                             |
|     Tetrahedron method does not include variations of the Fermi             |
|     occupations, so forces and stress will be inaccurate. We suggest        |
|     using a different smearing scheme ISMEAR = 1 or 2 for metals in         |
|     relaxations.                                                            |
|                                                                             |
 -----------------------------------------------------------------------------

       N       E                     dE             d eps       ncg     rms          rms(c)
DAV:   1    -0.432492264110E+02   -0.81492E-02   -0.25663E+00  4896   0.135E+01    0.445E-01
RMM:   2    -0.432492337826E+02   -0.73716E-05   -0.36203E-02  4904   0.167E+00    0.231E-01
RMM:   3    -0.432489562228E+02    0.27756E-03   -0.71206E-03  5172   0.685E-01    0.910E-02
RMM:   4    -0.432490037639E+02   -0.47541E-04   -0.13570E-03  5337   0.287E-01    0.475E-02
RMM:   5    -0.432490114871E+02   -0.77233E-05   -0.23044E-04  3089   0.132E-01
  15 F= -.43249011E+02 E0= -.43249011E+02  d E =-.113370E-01
 curvature:  -1.65 expect dE=-0.460E-01 dE for cont linesearch -0.275E-02
 ZBRENT: increasing intervall
 opt :   0.6261  next Energy=   -43.252521 (dE=-0.148E-01)
 bond charge predicted
 -----------------------------------------------------------------------------
|                                                                             |
|           W    W    AA    RRRRR   N    N  II  N    N   GGGG   !!!           |
|           W    W   A  A   R    R  NN   N  II  NN   N  G    G  !!!           |
|           W    W  A    A  R    R  N N  N  II  N N  N  G       !!!           |
|           W WW W  AAAAAA  RRRRR   N  N N  II  N  N N  G  GGG   !            |
|           WW  WW  A    A  R   R   N   NN  II  N   NN  G    G                |
|           W    W  A    A  R    R  N    N  II  N    N   GGGG   !!!           |
|                                                                             |
|     Tetrahedron method does not include variations of the Fermi             |
|     occupations, so forces and stress will be inaccurate. We suggest        |
|     using a different smearing scheme ISMEAR = 1 or 2 for metals in         |
|     relaxations.                                                            |
|                                                                             |
 -----------------------------------------------------------------------------

       N       E                     dE             d eps       ncg     rms          rms(c)
DAV:   1    -0.432510444859E+02   -0.20407E-02   -0.10305E+01  4896   0.270E+01    0.828E-01
RMM:   2    -0.432527383490E+02   -0.16939E-02   -0.14285E-01  4902   0.333E+00    0.445E-01
RMM:   3    -0.432518293740E+02    0.90898E-03   -0.26881E-02  5157   0.135E+00    0.181E-01
RMM:   4    -0.432519192677E+02   -0.89894E-04   -0.53147E-03  5384   0.572E-01    0.912E-02
RMM:   5    -0.432519354771E+02   -0.16209E-04   -0.98755E-04  4993   0.264E-01
  16 F= -.43251935E+02 E0= -.43251935E+02  d E =-.142610E-01
 curvature:  -2.11 expect dE=-0.107E+00 dE for cont linesearch -0.131E-02
 ZBRENT: bracketing found
 ZBRENT: interpolating
 opt :   0.4838  next Energy=   -43.253251 (dE=-0.156E-01)
 bond charge predicted
 -----------------------------------------------------------------------------
|                                                                             |
|           W    W    AA    RRRRR   N    N  II  N    N   GGGG   !!!           |
|           W    W   A  A   R    R  NN   N  II  NN   N  G    G  !!!           |
|           W    W  A    A  R    R  N N  N  II  N N  N  G       !!!           |
|           W WW W  AAAAAA  RRRRR   N  N N  II  N  N N  G  GGG   !            |
|           WW  WW  A    A  R   R   N   NN  II  N   NN  G    G                |
|           W    W  A    A  R    R  N    N  II  N    N   GGGG   !!!           |
|                                                                             |
|     Tetrahedron method does not include variations of the Fermi             |
|     occupations, so forces and stress will be inaccurate. We suggest        |
|     using a different smearing scheme ISMEAR = 1 or 2 for metals in         |
|     relaxations.                                                            |
|                                                                             |
 -----------------------------------------------------------------------------

       N       E                     dE             d eps       ncg     rms          rms(c)
DAV:   1    -0.432530270232E+02   -0.11078E-02   -0.14821E+00  4896   0.102E+01    0.312E-01
RMM:   2    -0.432532927110E+02   -0.26569E-03   -0.20070E-02  4904   0.124E+00    0.169E-01
RMM:   3    -0.432531304178E+02    0.16229E-03   -0.34573E-03  5160   0.490E-01    0.753E-02
RMM:   4    -0.432531203223E+02    0.10096E-04   -0.67105E-04  4608   0.209E-01
  17 F= -.43253120E+02 E0= -.43253120E+02  d E =-.154458E-01
 curvature:  -2.13 expect dE=-0.625E-01 dE for cont linesearch -0.130E-04
 trial: gam= 0.36015 g(F)=  0.217E-01 g(S)=  0.773E-02 ort = 0.184E-02 (trialstep = 0.147E+00)
 search vector abs. value=  0.102E+00
 bond charge predicted
 -----------------------------------------------------------------------------
|                                                                             |
|           W    W    AA    RRRRR   N    N  II  N    N   GGGG   !!!           |
|           W    W   A  A   R    R  NN   N  II  NN   N  G    G  !!!           |
|           W    W  A    A  R    R  N N  N  II  N N  N  G       !!!           |
|           W WW W  AAAAAA  RRRRR   N  N N  II  N  N N  G  GGG   !            |
|           WW  WW  A    A  R   R   N   NN  II  N   NN  G    G                |
|           W    W  A    A  R    R  N    N  II  N    N   GGGG   !!!           |
|                                                                             |
|     Tetrahedron method does not include variations of the Fermi             |
|     occupations, so forces and stress will be inaccurate. We suggest        |
|     using a different smearing scheme ISMEAR = 1 or 2 for metals in         |
|     relaxations.                                                            |
|                                                                             |
 -----------------------------------------------------------------------------

       N       E                     dE             d eps       ncg     rms          rms(c)
DAV:   1    -0.432555279327E+02   -0.23975E-02   -0.34608E-01  4928   0.516E+00    0.212E-01
RMM:   2    -0.432555638282E+02   -0.35895E-04   -0.71022E-03  4896   0.767E-01    0.114E-01
RMM:   3    -0.432554387115E+02    0.12512E-03   -0.94440E-04  5018   0.289E-01    0.591E-02
RMM:   4    -0.432553900849E+02    0.48627E-04   -0.29968E-04  3091   0.142E-01
  18 F= -.43255390E+02 E0= -.43255390E+02  d E =-.226976E-02
 trial-energy change:   -0.002270  1 .order   -0.002251   -0.004414   -0.000089
 step:   0.1499(harm=  0.1499)  dis= 0.00358  next Energy=   -43.255373 (dE=-0.225E-02)
 bond charge predicted
 -----------------------------------------------------------------------------
|                                                                             |
|           W    W    AA    RRRRR   N    N  II  N    N   GGGG   !!!           |
|           W    W   A  A   R    R  NN   N  II  NN   N  G    G  !!!           |
|           W    W  A    A  R    R  N N  N  II  N N  N  G       !!!           |
|           W WW W  AAAAAA  RRRRR   N  N N  II  N  N N  G  GGG   !            |
|           WW  WW  A    A  R   R   N   NN  II  N   NN  G    G                |
|           W    W  A    A  R    R  N    N  II  N    N   GGGG   !!!           |
|                                                                             |
|     Tetrahedron method does not include variations of the Fermi             |
|     occupations, so forces and stress will be inaccurate. We suggest        |
|     using a different smearing scheme ISMEAR = 1 or 2 for metals in         |
|     relaxations.                                                            |
|                                                                             |
 -----------------------------------------------------------------------------

       N       E                     dE             d eps       ncg     rms          rms(c)
DAV:   1    -0.432553943416E+02    0.44370E-04   -0.21185E-04  5016   0.118E-01    0.124E-02
RMM:   2    -0.432553940894E+02    0.25219E-06   -0.13555E-05  2409   0.336E-02
  19 F= -.43255394E+02 E0= -.43255394E+02  d E =-.227377E-02
 curvature:  -0.26 expect dE=-0.541E-02 dE for cont linesearch -0.141E-06
 trial: gam= 0.73039 g(F)=  0.193E-01 g(S)=  0.190E-02 ort =-0.238E-03 (trialstep = 0.147E+00)
 search vector abs. value=  0.754E-01
 bond charge predicted
 -----------------------------------------------------------------------------
|                                                                             |
|           W    W    AA    RRRRR   N    N  II  N    N   GGGG   !!!           |
|           W    W   A  A   R    R  NN   N  II  NN   N  G    G  !!!           |
|           W    W  A    A  R    R  N N  N  II  N N  N  G       !!!           |
|           W WW W  AAAAAA  RRRRR   N  N N  II  N  N N  G  GGG   !            |
|           WW  WW  A    A  R   R   N   NN  II  N   NN  G    G                |
|           W    W  A    A  R    R  N    N  II  N    N   GGGG   !!!           |
|                                                                             |
|     Tetrahedron method does not include variations of the Fermi             |
|     occupations, so forces and stress will be inaccurate. We suggest        |
|     using a different smearing scheme ISMEAR = 1 or 2 for metals in         |
|     relaxations.                                                            |
|                                                                             |
 -----------------------------------------------------------------------------

       N       E                     dE             d eps       ncg     rms          rms(c)
DAV:   1    -0.432579333776E+02   -0.25390E-02   -0.24810E-01  4896   0.430E+00    0.173E-01
RMM:   2    -0.432578341523E+02    0.99225E-04   -0.43579E-03  4898   0.608E-01    0.889E-02
RMM:   3    -0.432577663282E+02    0.67824E-04   -0.65964E-04  4647   0.234E-01
  20 F= -.43257766E+02 E0= -.43257766E+02  d E =-.237224E-02
 trial-energy change:   -0.002372  1 .order   -0.002433   -0.003102   -0.001763
 step:   0.3417(harm=  0.3417)  dis= 0.00650  next Energy=   -43.258988 (dE=-0.359E-02)
 bond charge predicted
 -----------------------------------------------------------------------------
|                                                                             |
|           W    W    AA    RRRRR   N    N  II  N    N   GGGG   !!!           |
|           W    W   A  A   R    R  NN   N  II  NN   N  G    G  !!!           |
|           W    W  A    A  R    R  N N  N  II  N N  N  G       !!!           |
|           W WW W  AAAAAA  RRRRR   N  N N  II  N  N N  G  GGG   !            |
|           WW  WW  A    A  R   R   N   NN  II  N   NN  G    G                |
|           W    W  A    A  R    R  N    N  II  N    N   GGGG   !!!           |
|                                                                             |
|     Tetrahedron method does not include variations of the Fermi             |
|     occupations, so forces and stress will be inaccurate. We suggest        |
|     using a different smearing scheme ISMEAR = 1 or 2 for metals in         |
|     relaxations.                                                            |
|                                                                             |
 -----------------------------------------------------------------------------

       N       E                     dE             d eps       ncg     rms          rms(c)
DAV:   1    -0.432588822666E+02   -0.10481E-02   -0.42453E-01  4896   0.562E+00    0.229E-01
RMM:   2    -0.432587195350E+02    0.16273E-03   -0.76762E-03  4956   0.799E-01    0.120E-01
RMM:   3    -0.432586002512E+02    0.11928E-03   -0.10959E-03  4951   0.308E-01    0.651E-02
RMM:   4    -0.432585488338E+02    0.51417E-04   -0.38924E-04  3792   0.158E-01
  21 F= -.43258549E+02 E0= -.43258549E+02  d E =-.315474E-02
 curvature:  -0.61 expect dE=-0.614E-02 dE for cont linesearch -0.546E-04
 trial: gam= 0.51483 g(F)=  0.690E-02 g(S)=  0.313E-02 ort =-0.259E-02 (trialstep = 0.186E+00)
 search vector abs. value=  0.274E-01
 bond charge predicted
 -----------------------------------------------------------------------------
|                                                                             |
|           W    W    AA    RRRRR   N    N  II  N    N   GGGG   !!!           |
|           W    W   A  A   R    R  NN   N  II  NN   N  G    G  !!!           |
|           W    W  A    A  R    R  N N  N  II  N N  N  G       !!!           |
|           W WW W  AAAAAA  RRRRR   N  N N  II  N  N N  G  GGG   !            |
|           WW  WW  A    A  R   R   N   NN  II  N   NN  G    G                |
|           W    W  A    A  R    R  N    N  II  N    N   GGGG   !!!           |
|                                                                             |
|     Tetrahedron method does not include variations of the Fermi             |
|     occupations, so forces and stress will be inaccurate. We suggest        |
|     using a different smearing scheme ISMEAR = 1 or 2 for metals in         |
|     relaxations.                                                            |
|                                                                             |
 -----------------------------------------------------------------------------

       N       E                     dE             d eps       ncg     rms          rms(c)
DAV:   1    -0.432595361817E+02   -0.93593E-03   -0.17944E-01  4896   0.365E+00    0.123E-01
RMM:   2    -0.432595801177E+02   -0.43936E-04   -0.30535E-03  4917   0.499E-01    0.591E-02
RMM:   3    -0.432595687702E+02    0.11347E-04   -0.55962E-04  4387   0.204E-01
  22 F= -.43259569E+02 E0= -.43259569E+02  d E =-.101994E-02
 trial-energy change:   -0.001020  1 .order   -0.000992   -0.001620   -0.000365
 step:   0.2404(harm=  0.2404)  dis= 0.00257  next Energy=   -43.259594 (dE=-0.105E-02)
 bond charge predicted
 -----------------------------------------------------------------------------
|                                                                             |
|           W    W    AA    RRRRR   N    N  II  N    N   GGGG   !!!           |
|           W    W   A  A   R    R  NN   N  II  NN   N  G    G  !!!           |
|           W    W  A    A  R    R  N N  N  II  N N  N  G       !!!           |
|           W WW W  AAAAAA  RRRRR   N  N N  II  N  N N  G  GGG   !            |
|           WW  WW  A    A  R   R   N   NN  II  N   NN  G    G                |
|           W    W  A    A  R    R  N    N  II  N    N   GGGG   !!!           |
|                                                                             |
|     Tetrahedron method does not include variations of the Fermi             |
|     occupations, so forces and stress will be inaccurate. We suggest        |
|     using a different smearing scheme ISMEAR = 1 or 2 for metals in         |
|     relaxations.                                                            |
|                                                                             |
 -----------------------------------------------------------------------------

       N       E                     dE             d eps       ncg     rms          rms(c)
DAV:   1    -0.432596156215E+02   -0.35504E-04   -0.14821E-02  5020   0.105E+00    0.413E-02
RMM:   2    -0.432596222615E+02   -0.66400E-05   -0.28523E-04  3200   0.152E-01
  23 F= -.43259622E+02 E0= -.43259622E+02  d E =-.107343E-02
 curvature:  -0.38 expect dE=-0.246E-02 dE for cont linesearch -0.118E-06
 trial: gam= 0.50055 g(F)=  0.566E-02 g(S)=  0.842E-03 ort =-0.925E-04 (trialstep = 0.197E+00)
 search vector abs. value=  0.133E-01
 bond charge predicted
 -----------------------------------------------------------------------------
|                                                                             |
|           W    W    AA    RRRRR   N    N  II  N    N   GGGG   !!!           |
|           W    W   A  A   R    R  NN   N  II  NN   N  G    G  !!!           |
|           W    W  A    A  R    R  N N  N  II  N N  N  G       !!!           |
|           W WW W  AAAAAA  RRRRR   N  N N  II  N  N N  G  GGG   !            |
|           WW  WW  A    A  R   R   N   NN  II  N   NN  G    G                |
|           W    W  A    A  R    R  N    N  II  N    N   GGGG   !!!           |
|                                                                             |
|     Tetrahedron method does not include variations of the Fermi             |
|     occupations, so forces and stress will be inaccurate. We suggest        |
|     using a different smearing scheme ISMEAR = 1 or 2 for metals in         |
|     relaxations.                                                            |
|                                                                             |
 -----------------------------------------------------------------------------

       N       E                     dE             d eps       ncg     rms          rms(c)
DAV:   1    -0.432604031097E+02   -0.78749E-03   -0.88438E-02  4896   0.261E+00    0.974E-02
RMM:   2    -0.432604565373E+02   -0.53428E-04   -0.18923E-03  4986   0.393E-01    0.497E-02
RMM:   3    -0.432604472396E+02    0.92977E-05   -0.30596E-04  3263   0.155E-01
  24 F= -.43260447E+02 E0= -.43260447E+02  d E =-.824978E-03
 trial-energy change:   -0.000825  1 .order   -0.000813   -0.001272   -0.000355
 step:   0.2733(harm=  0.2733)  dis= 0.00204  next Energy=   -43.260504 (dE=-0.882E-03)
 bond charge predicted
 -----------------------------------------------------------------------------
|                                                                             |
|           W    W    AA    RRRRR   N    N  II  N    N   GGGG   !!!           |
|           W    W   A  A   R    R  NN   N  II  NN   N  G    G  !!!           |
|           W    W  A    A  R    R  N N  N  II  N N  N  G       !!!           |
|           W WW W  AAAAAA  RRRRR   N  N N  II  N  N N  G  GGG   !            |
|           WW  WW  A    A  R   R   N   NN  II  N   NN  G    G                |
|           W    W  A    A  R    R  N    N  II  N    N   GGGG   !!!           |
|                                                                             |
|     Tetrahedron method does not include variations of the Fermi             |
|     occupations, so forces and stress will be inaccurate. We suggest        |
|     using a different smearing scheme ISMEAR = 1 or 2 for metals in         |
|     relaxations.                                                            |
|                                                                             |
 -----------------------------------------------------------------------------

       N       E                     dE             d eps       ncg     rms          rms(c)
DAV:   1    -0.432605125796E+02   -0.56042E-04   -0.13138E-02  4924   0.100E+00    0.409E-02
RMM:   2    -0.432605241705E+02   -0.11591E-04   -0.32023E-04  3393   0.162E-01
  25 F= -.43260524E+02 E0= -.43260524E+02  d E =-.901909E-03
 curvature:  -0.28 expect dE=-0.314E-02 dE for cont linesearch -0.137E-07
 trial: gam= 1.75889 g(F)=  0.104E-01 g(S)=  0.753E-03 ort =-0.254E-04 (trialstep = 0.540E-01)
 search vector abs. value=  0.521E-01
 reached required accuracy - stopping structural energy minimisation
 -----------------------------------------------------------------------------
|                                                                             |
|           W    W    AA    RRRRR   N    N  II  N    N   GGGG   !!!           |
|           W    W   A  A   R    R  NN   N  II  NN   N  G    G  !!!           |
|           W    W  A    A  R    R  N N  N  II  N N  N  G       !!!           |
|           W WW W  AAAAAA  RRRRR   N  N N  II  N  N N  G  GGG   !            |
|           WW  WW  A    A  R   R   N   NN  II  N   NN  G    G                |
|           W    W  A    A  R    R  N    N  II  N    N   GGGG   !!!           |
|                                                                             |
|     Tetrahedron method does not include variations of the Fermi             |
|     occupations, so forces and stress will be inaccurate. We suggest        |
|     using a different smearing scheme ISMEAR = 1 or 2 for metals in         |
|     relaxations.                                                            |
|                                                                             |
 -----------------------------------------------------------------------------

