       N       E                     dE             d eps       ncg     rms          rms(c)
DAV:   1     0.199479889465E+03    0.19948E+03   -0.10935E+04  2232   0.119E+03
DAV:   2     0.409382819049E+01   -0.19539E+03   -0.19370E+03  3432   0.242E+02
DAV:   3    -0.238465530860E+02   -0.27940E+02   -0.27346E+02  2352   0.104E+02
DAV:   4    -0.258026586889E+02   -0.19561E+01   -0.18754E+01  3980   0.232E+01
DAV:   5    -0.258947548175E+02   -0.92096E-01   -0.88728E-01  3318   0.460E+00    0.144E+01
RMM:   6    -0.407558534644E+02   -0.14861E+02   -0.40613E+01  2709   0.275E+01    0.265E+01
RMM:   7    -0.237737363820E+02    0.16982E+02   -0.69623E+00  2232   0.187E+01    0.113E+01
RMM:   8    -0.236109341612E+02    0.16280E+00   -0.24038E+00  2773   0.778E+00    0.110E+01
RMM:   9    -0.232138630031E+02    0.39707E+00   -0.14549E+00  2827   0.506E+00    0.780E+00
RMM:  10    -0.230303135492E+02    0.18355E+00   -0.49170E-01  2722   0.367E+00    0.349E+00
RMM:  11    -0.229921389971E+02    0.38175E-01   -0.22668E-01  2753   0.246E+00    0.276E+00
RMM:  12    -0.230060384253E+02   -0.13899E-01   -0.17720E-01  2753   0.217E+00    0.355E+00
RMM:  13    -0.229675334385E+02    0.38505E-01   -0.79700E-02  2757   0.136E+00    0.130E+00
RMM:  14    -0.229712897220E+02   -0.37563E-02   -0.49850E-02  3153   0.809E-01    0.894E-01
RMM:  15    -0.229703159504E+02    0.97377E-03   -0.24012E-02  3033   0.550E-01    0.267E-01
RMM:  16    -0.229726723421E+02   -0.23564E-02   -0.14984E-02  3113   0.329E-01    0.198E-01
RMM:  17    -0.229732667921E+02   -0.59445E-03   -0.75361E-03  2453   0.178E-01    0.844E-02
RMM:  18    -0.229736331741E+02   -0.36638E-03   -0.35897E-03  1955   0.118E-01    0.634E-02
RMM:  19    -0.229739106974E+02   -0.27752E-03   -0.27774E-03  1777   0.847E-02    0.426E-02
RMM:  20    -0.229740584201E+02   -0.14772E-03   -0.14052E-03  1648   0.692E-02    0.151E-02
RMM:  21    -0.229741566317E+02   -0.98212E-04   -0.96971E-04  1492   0.555E-02
   1 F= -.22974157E+02 E0= -.22974157E+02  d E =-.229742E+02
       N       E                     dE             d eps       ncg     rms          rms(c)
DAV:   1    -0.338041347599E+02   -0.10830E+02   -0.49783E+02  2232   0.194E+02    0.196E+01
RMM:   2    -0.295891272382E+02    0.42150E+01   -0.24360E+01  2232   0.396E+01    0.142E+01
RMM:   3    -0.311810528263E+02   -0.15919E+01   -0.12865E+01  2540   0.240E+01    0.157E+01
RMM:   4    -0.276388410433E+02    0.35422E+01   -0.36873E+00  2337   0.144E+01    0.448E+00
RMM:   5    -0.274700922614E+02    0.16875E+00   -0.13809E+00  2613   0.766E+00    0.296E+00
RMM:   6    -0.274879744963E+02   -0.17882E-01   -0.43802E-01  2726   0.372E+00    0.317E+00
RMM:   7    -0.274180652956E+02    0.69909E-01   -0.27253E-01  2601   0.266E+00    0.145E+00
RMM:   8    -0.274144790362E+02    0.35863E-02   -0.13740E-01  2775   0.191E+00    0.898E-01
RMM:   9    -0.274134737160E+02    0.10053E-02   -0.69906E-02  2600   0.132E+00    0.706E-01
RMM:  10    -0.274158581774E+02   -0.23845E-02   -0.16970E-02  2740   0.768E-01    0.554E-01
RMM:  11    -0.274163786901E+02   -0.52051E-03   -0.12949E-02  2956   0.398E-01    0.116E-01
RMM:  12    -0.274172725411E+02   -0.89385E-03   -0.45146E-03  2679   0.289E-01    0.633E-02
RMM:  13    -0.274179144434E+02   -0.64190E-03   -0.22046E-03  2255   0.158E-01    0.405E-02
RMM:  14    -0.274179953901E+02   -0.80947E-04   -0.88893E-04  1675   0.892E-02
   2 F= -.27417995E+02 E0= -.27417995E+02  d E =-.444384E+01
       N       E                     dE             d eps       ncg     rms          rms(c)
DAV:   1    -0.275645520130E+02   -0.14664E+00   -0.57450E+00  2412   0.201E+01    0.214E+00
RMM:   2    -0.275971364951E+02   -0.32584E-01   -0.30838E-01  2366   0.420E+00    0.333E+00
RMM:   3    -0.275198823061E+02    0.77254E-01   -0.11569E-01  2437   0.251E+00    0.177E+00
RMM:   4    -0.275218768317E+02   -0.19945E-02   -0.75664E-02  2500   0.162E+00    0.187E+00
RMM:   5    -0.274978658612E+02    0.24011E-01   -0.29303E-02  2292   0.117E+00    0.618E-01
RMM:   6    -0.274933477197E+02    0.45181E-02   -0.94510E-03  2438   0.722E-01    0.184E-01
RMM:   7    -0.274930648493E+02    0.28287E-03   -0.38230E-03  2694   0.378E-01    0.767E-02
RMM:   8    -0.274931089646E+02   -0.44115E-04   -0.13720E-03  2342   0.165E-01    0.433E-02
RMM:   9    -0.274931191639E+02   -0.10199E-04   -0.15779E-04  1350   0.885E-02
   3 F= -.27493119E+02 E0= -.27493119E+02  d E =-.451896E+01
       N       E                     dE             d eps       ncg     rms          rms(c)
DAV:   1    -0.284643778749E+02   -0.97127E+00   -0.19613E+01  2232   0.377E+01    0.281E+00
RMM:   2    -0.284448653267E+02    0.19513E-01   -0.67584E-01  2268   0.683E+00    0.328E+00
RMM:   3    -0.283846082788E+02    0.60257E-01   -0.17703E-01  2457   0.356E+00    0.197E+00
RMM:   4    -0.283826834202E+02    0.19249E-02   -0.14044E-01  2449   0.231E+00    0.213E+00
RMM:   5    -0.283420147281E+02    0.40669E-01   -0.53935E-02  2355   0.167E+00    0.515E-01
RMM:   6    -0.283416931690E+02    0.32156E-03   -0.21269E-02  2603   0.931E-01    0.252E-01
RMM:   7    -0.283411005931E+02    0.59258E-03   -0.64424E-03  2686   0.432E-01    0.125E-01
RMM:   8    -0.283412442233E+02   -0.14363E-03   -0.27099E-03  2676   0.233E-01    0.649E-02
RMM:   9    -0.283412732188E+02   -0.28995E-04   -0.42410E-04  1638   0.127E-01
   4 F= -.28341273E+02 E0= -.28341273E+02  d E =-.848154E+00
       N       E                     dE             d eps       ncg     rms          rms(c)
DAV:   1    -0.299501658478E+02   -0.16089E+01   -0.16996E+02  2232   0.117E+02    0.909E+00
RMM:   2    -0.292905029812E+02    0.65966E+00   -0.55502E+00  2232   0.221E+01    0.514E+00
RMM:   3    -0.293339010204E+02   -0.43398E-01   -0.17482E+00  2270   0.115E+01    0.448E+00
RMM:   4    -0.290318615633E+02    0.30204E+00   -0.69986E-01  2386   0.687E+00    0.127E+00
RMM:   5    -0.290552787296E+02   -0.23417E-01   -0.30519E-01  2668   0.361E+00    0.130E+00
RMM:   6    -0.290401371578E+02    0.15142E-01   -0.79202E-02  2576   0.170E+00    0.580E-01
RMM:   7    -0.290404310567E+02   -0.29390E-03   -0.26734E-02  2562   0.101E+00    0.281E-01
RMM:   8    -0.290405320656E+02   -0.10101E-03   -0.70344E-03  2548   0.559E-01    0.146E-01
RMM:   9    -0.290406998700E+02   -0.16780E-03   -0.27553E-03  2762   0.283E-01    0.611E-02
RMM:  10    -0.290407433166E+02   -0.43447E-04   -0.49456E-04  1688   0.141E-01
   5 F= -.29040743E+02 E0= -.29040743E+02  d E =-.154762E+01
       N       E                     dE             d eps       ncg     rms          rms(c)
DAV:   1    -0.293794629476E+02   -0.33876E+00   -0.30440E+01  2232   0.482E+01    0.356E+00
RMM:   2    -0.292691672588E+02    0.11030E+00   -0.82852E-01  2234   0.876E+00    0.231E+00
RMM:   3    -0.292957895438E+02   -0.26622E-01   -0.33565E-01  2542   0.434E+00    0.290E+00
RMM:   4    -0.292227623800E+02    0.73027E-01   -0.13347E-01  2458   0.248E+00    0.120E+00
RMM:   5    -0.292151978417E+02    0.75645E-02   -0.61814E-02  2447   0.167E+00    0.650E-01
RMM:   6    -0.292142520670E+02    0.94577E-03   -0.25394E-02  2710   0.903E-01    0.439E-01
RMM:   7    -0.292124970581E+02    0.17550E-02   -0.80115E-03  2550   0.562E-01    0.149E-01
RMM:   8    -0.292126263000E+02   -0.12924E-03   -0.28727E-03  2665   0.296E-01    0.612E-02
RMM:   9    -0.292125927630E+02    0.33537E-04   -0.44088E-04  1719   0.132E-01
   6 F= -.29212593E+02 E0= -.29212593E+02  d E =-.171947E+01
       N       E                     dE             d eps       ncg     rms          rms(c)
DAV:   1    -0.292857310040E+02   -0.73105E-01   -0.30045E+00  2236   0.153E+01    0.114E+00
RMM:   2    -0.292736828447E+02    0.12048E-01   -0.83768E-02  2232   0.275E+00    0.684E-01
RMM:   3    -0.292763358201E+02   -0.26530E-02   -0.31439E-02  2399   0.141E+00    0.793E-01
RMM:   4    -0.292694094913E+02    0.69263E-02   -0.11368E-02  2376   0.817E-01    0.266E-01
RMM:   5    -0.292691841795E+02    0.22531E-03   -0.50189E-03  2543   0.476E-01    0.115E-01
RMM:   6    -0.292692371316E+02   -0.52952E-04   -0.15703E-03  2520   0.244E-01    0.115E-01
RMM:   7    -0.292690801131E+02    0.15702E-03   -0.55105E-04  1699   0.131E-01    0.422E-02
RMM:   8    -0.292690946749E+02   -0.14562E-04   -0.94726E-05  1312   0.785E-02
   7 F= -.29269095E+02 E0= -.29269095E+02  d E =-.177598E+01
       N       E                     dE             d eps       ncg     rms          rms(c)
DAV:   1    -0.309627850170E+02   -0.16937E+01   -0.25177E+01  2232   0.413E+01    0.322E+00
RMM:   2    -0.311505274528E+02   -0.18774E+00   -0.15958E+00  2379   0.922E+00    0.415E+00
RMM:   3    -0.308611011583E+02    0.28943E+00   -0.25066E-01  2232   0.512E+00    0.122E+00
RMM:   4    -0.308506831810E+02    0.10418E-01   -0.77443E-02  2436   0.212E+00    0.842E-01
RMM:   5    -0.308498817498E+02    0.80143E-03   -0.39437E-02  2510   0.123E+00    0.821E-01
RMM:   6    -0.308433817967E+02    0.65000E-02   -0.12495E-02  2317   0.819E-01    0.284E-01
RMM:   7    -0.308429749175E+02    0.40688E-03   -0.45270E-03  2598   0.470E-01    0.121E-01
RMM:   8    -0.308429767696E+02   -0.18522E-05   -0.11689E-03  2192   0.204E-01    0.473E-02
RMM:   9    -0.308429714563E+02    0.53133E-05   -0.18140E-04  1423   0.937E-02
   8 F= -.30842971E+02 E0= -.30842971E+02  d E =-.157388E+01
       N       E                     dE             d eps       ncg     rms          rms(c)
DAV:   1    -0.322117661352E+02   -0.13688E+01   -0.57722E+01  2232   0.631E+01    0.427E+00
RMM:   2    -0.324705761084E+02   -0.25881E+00   -0.31097E+00  2369   0.137E+01    0.462E+00
RMM:   3    -0.320864858175E+02    0.38409E+00   -0.42816E-01  2232   0.711E+00    0.164E+00
RMM:   4    -0.320763411205E+02    0.10145E-01   -0.15872E-01  2496   0.288E+00    0.121E+00
RMM:   5    -0.320647745749E+02    0.11567E-01   -0.59332E-02  2482   0.161E+00    0.773E-01
RMM:   6    -0.320586386341E+02    0.61359E-02   -0.17744E-02  2386   0.104E+00    0.291E-01
RMM:   7    -0.320588020821E+02   -0.16345E-03   -0.75767E-03  2667   0.561E-01    0.172E-01
RMM:   8    -0.320585981838E+02    0.20390E-03   -0.15823E-03  2380   0.257E-01    0.657E-02
RMM:   9    -0.320586265123E+02   -0.28329E-04   -0.45081E-04  1678   0.132E-01
   9 F= -.32058627E+02 E0= -.32058627E+02  d E =-.278953E+01
       N       E                     dE             d eps       ncg     rms          rms(c)
DAV:   1    -0.320664581015E+02   -0.78599E-02   -0.21278E+02  2232   0.124E+02    0.721E+00
RMM:   2    -0.327288714493E+02   -0.66241E+00   -0.10667E+01  2324   0.287E+01    0.576E+00
RMM:   3    -0.321290282386E+02    0.59984E+00   -0.12709E+00  2250   0.139E+01    0.260E+00
RMM:   4    -0.321018122316E+02    0.27216E-01   -0.44052E-01  2487   0.488E+00    0.165E+00
RMM:   5    -0.320784291341E+02    0.23383E-01   -0.11679E-01  2459   0.269E+00    0.946E-01
RMM:   6    -0.320739321808E+02    0.44970E-02   -0.47342E-02  2541   0.162E+00    0.394E-01
RMM:   7    -0.320731398466E+02    0.79233E-03   -0.11050E-02  2586   0.773E-01    0.151E-01
RMM:   8    -0.320734538760E+02   -0.31403E-03   -0.32983E-03  2734   0.364E-01    0.874E-02
RMM:   9    -0.320734205273E+02    0.33349E-04   -0.10625E-03  2231   0.193E-01    0.577E-02
RMM:  10    -0.320734282167E+02   -0.76894E-05   -0.26390E-04  1505   0.113E-01
  10 F= -.32073428E+02 E0= -.32073428E+02  d E =-.280433E+01
       N       E                     dE             d eps       ncg     rms          rms(c)
DAV:   1    -0.338080150495E+02   -0.17346E+01   -0.42783E+01  2296   0.577E+01    0.221E+00
RMM:   2    -0.338689296932E+02   -0.60915E-01   -0.11820E+00  2302   0.109E+01    0.143E+00
RMM:   3    -0.338685361636E+02    0.39353E-03   -0.27085E-01  2564   0.456E+00    0.918E-01
RMM:   4    -0.338622158007E+02    0.63204E-02   -0.69307E-02  2616   0.193E+00    0.497E-01
RMM:   5    -0.338601580387E+02    0.20578E-02   -0.18003E-02  2495   0.106E+00    0.297E-01
RMM:   6    -0.338596024253E+02    0.55561E-03   -0.45922E-03  2536   0.582E-01    0.110E-01
RMM:   7    -0.338597020151E+02   -0.99590E-04   -0.15408E-03  2492   0.273E-01    0.574E-02
RMM:   8    -0.338597067453E+02   -0.47302E-05   -0.26782E-04  1431   0.129E-01
  11 F= -.33859707E+02 E0= -.33859707E+02  d E =-.178628E+01
       N       E                     dE             d eps       ncg     rms          rms(c)
DAV:   1    -0.356284848689E+02   -0.17688E+01   -0.17614E+02  2244   0.117E+02    0.468E+00
RMM:   2    -0.359723811536E+02   -0.34390E+00   -0.50930E+00  2297   0.225E+01    0.296E+00
RMM:   3    -0.359581177750E+02    0.14263E-01   -0.91155E-01  2471   0.939E+00    0.196E+00
RMM:   4    -0.359214799614E+02    0.36638E-01   -0.23830E-01  2593   0.379E+00    0.944E-01
RMM:   5    -0.359148826559E+02    0.65973E-02   -0.55008E-02  2463   0.192E+00    0.482E-01
RMM:   6    -0.359140134611E+02    0.86919E-03   -0.17273E-02  2570   0.104E+00    0.224E-01
RMM:   7    -0.359142650792E+02   -0.25162E-03   -0.41810E-03  2608   0.483E-01    0.819E-02
RMM:   8    -0.359143797531E+02   -0.11467E-03   -0.10638E-03  2124   0.229E-01    0.438E-02
RMM:   9    -0.359144180968E+02   -0.38344E-04   -0.18126E-04  1375   0.104E-01
  12 F= -.35914418E+02 E0= -.35914418E+02  d E =-.384099E+01
       N       E                     dE             d eps       ncg     rms          rms(c)
DAV:   1    -0.335766193155E+02    0.23378E+01   -0.68392E+02  2232   0.234E+02    0.133E+01
RMM:   2    -0.352647094239E+02   -0.16881E+01   -0.22535E+01  2232   0.497E+01    0.451E+00
RMM:   3    -0.352826260745E+02   -0.17917E-01   -0.33650E+00  2467   0.195E+01    0.269E+00
RMM:   4    -0.352209718915E+02    0.61654E-01   -0.71047E-01  2479   0.728E+00    0.129E+00
RMM:   5    -0.352251656128E+02   -0.41937E-02   -0.17685E-01  2637   0.334E+00    0.669E-01
RMM:   6    -0.352274876144E+02   -0.23220E-02   -0.38804E-02  2585   0.149E+00    0.410E-01
RMM:   7    -0.352277597013E+02   -0.27209E-03   -0.87593E-03  2554   0.725E-01    0.161E-01
RMM:   8    -0.352280239031E+02   -0.26420E-03   -0.26237E-03  2545   0.356E-01    0.473E-02
RMM:   9    -0.352280527759E+02   -0.28873E-04   -0.50974E-04  1740   0.162E-01
  13 F= -.35228053E+02 E0= -.35228053E+02  d E =-.315462E+01
       N       E                     dE             d eps       ncg     rms          rms(c)
DAV:   1    -0.358337013790E+02   -0.60568E+00   -0.33256E+02  2232   0.162E+02    0.699E+00
RMM:   2    -0.365879323395E+02   -0.75423E+00   -0.12049E+01  2236   0.348E+01    0.424E+00
RMM:   3    -0.365824273591E+02    0.55050E-02   -0.20396E+00  2553   0.148E+01    0.363E+00
RMM:   4    -0.365411659223E+02    0.41261E-01   -0.40859E-01  2536   0.541E+00    0.313E+00
RMM:   5    -0.364895857014E+02    0.51580E-01   -0.15661E-01  2355   0.337E+00    0.149E+00
RMM:   6    -0.364817707224E+02    0.78150E-02   -0.52502E-02  2324   0.221E+00    0.480E-01
RMM:   7    -0.364817389682E+02    0.31754E-04   -0.23920E-02  2644   0.124E+00    0.267E-01
RMM:   8    -0.364811578183E+02    0.58115E-03   -0.34013E-03  2346   0.548E-01    0.155E-01
RMM:   9    -0.364812599834E+02   -0.10217E-03   -0.17916E-03  2430   0.296E-01    0.425E-02
RMM:  10    -0.364812655179E+02   -0.55345E-05   -0.44377E-04  1791   0.180E-01
  14 F= -.36481266E+02 E0= -.36481266E+02  d E =-.440784E+01
       N       E                     dE             d eps       ncg     rms          rms(c)
DAV:   1    -0.365404537330E+02   -0.59194E-01   -0.39709E+01  2244   0.564E+01    0.214E+00
RMM:   2    -0.366149273409E+02   -0.74474E-01   -0.10624E+00  2237   0.106E+01    0.108E+00
RMM:   3    -0.366144791039E+02    0.44824E-03   -0.16472E-01  2470   0.386E+00    0.573E-01
RMM:   4    -0.366117724952E+02    0.27066E-02   -0.38269E-02  2488   0.162E+00    0.228E-01
RMM:   5    -0.366122150164E+02   -0.44252E-03   -0.94851E-03  2614   0.781E-01    0.158E-01
RMM:   6    -0.366120173281E+02    0.19769E-03   -0.16667E-03  2484   0.321E-01    0.761E-02
RMM:   7    -0.366120058784E+02    0.11450E-04   -0.38010E-04  1620   0.152E-01
  15 F= -.36612006E+02 E0= -.36612006E+02  d E =-.453858E+01
       N       E                     dE             d eps       ncg     rms          rms(c)
DAV:   1    -0.377717246752E+02   -0.11597E+01   -0.42891E+01  2232   0.576E+01    0.295E+00
RMM:   2    -0.377714646823E+02    0.25999E-03   -0.10967E+00  2236   0.116E+01    0.157E+00
RMM:   3    -0.377530592454E+02    0.18405E-01   -0.15060E-01  2357   0.389E+00    0.988E-01
RMM:   4    -0.377395646647E+02    0.13495E-01   -0.50937E-02  2308   0.211E+00    0.433E-01
RMM:   5    -0.377381199886E+02    0.14447E-02   -0.17073E-02  2395   0.115E+00    0.162E-01
RMM:   6    -0.377381583238E+02   -0.38335E-04   -0.34333E-03  2505   0.529E-01    0.105E-01
RMM:   7    -0.377381903256E+02   -0.32002E-04   -0.93255E-04  2193   0.228E-01
  16 F= -.37738190E+02 E0= -.37738190E+02  d E =-.112618E+01
       N       E                     dE             d eps       ncg     rms          rms(c)
DAV:   1    -0.379470320257E+02   -0.20887E+00   -0.16437E+01  2236   0.361E+01    0.185E+00
RMM:   2    -0.379435505026E+02    0.34815E-02   -0.44772E-01  2235   0.742E+00    0.973E-01
RMM:   3    -0.379361283568E+02    0.74221E-02   -0.55583E-02  2331   0.240E+00    0.613E-01
RMM:   4    -0.379309398882E+02    0.51885E-02   -0.22528E-02  2317   0.136E+00    0.225E-01
RMM:   5    -0.379309082328E+02    0.31655E-04   -0.54953E-03  2483   0.689E-01    0.114E-01
RMM:   6    -0.379308961188E+02    0.12114E-04   -0.10748E-03  2336   0.289E-01    0.600E-02
RMM:   7    -0.379308908851E+02    0.52337E-05   -0.28606E-04  1494   0.141E-01
  17 F= -.37930891E+02 E0= -.37930891E+02  d E =-.131889E+01
       N       E                     dE             d eps       ncg     rms          rms(c)
DAV:   1    -0.386242435698E+02   -0.69335E+00   -0.10424E+01  2232   0.291E+01    0.162E+00
RMM:   2    -0.386341752092E+02   -0.99316E-02   -0.29559E-01  2232   0.593E+00    0.802E-01
RMM:   3    -0.386297188065E+02    0.44564E-02   -0.54322E-02  2397   0.220E+00    0.357E-01
RMM:   4    -0.386292975383E+02    0.42127E-03   -0.14224E-02  2486   0.955E-01    0.148E-01
RMM:   5    -0.386292279961E+02    0.69542E-04   -0.26019E-03  2515   0.436E-01    0.785E-02
RMM:   6    -0.386292148479E+02    0.13148E-04   -0.60257E-04  1873   0.198E-01
  18 F= -.38629215E+02 E0= -.38629215E+02  d E =-.698324E+00
       N       E                     dE             d eps       ncg     rms          rms(c)
DAV:   1    -0.392874988060E+02   -0.65827E+00   -0.39020E+01  2232   0.557E+01    0.298E+00
RMM:   2    -0.393274063668E+02   -0.39908E-01   -0.11028E+00  2232   0.112E+01    0.152E+00
RMM:   3    -0.393102986308E+02    0.17108E-01   -0.20914E-01  2418   0.426E+00    0.700E-01
RMM:   4    -0.393088787029E+02    0.14199E-02   -0.59024E-02  2457   0.186E+00    0.282E-01
RMM:   5    -0.393088968031E+02   -0.18100E-04   -0.11393E-02  2539   0.846E-01    0.163E-01
RMM:   6    -0.393088844817E+02    0.12321E-04   -0.25835E-03  2598   0.384E-01    0.700E-02
RMM:   7    -0.393088503464E+02    0.34135E-04   -0.47585E-04  1725   0.158E-01
  19 F= -.39308850E+02 E0= -.39308850E+02  d E =-.137796E+01
       N       E                     dE             d eps       ncg     rms          rms(c)
DAV:   1    -0.394112866965E+02   -0.10240E+00   -0.86572E+00  2460   0.260E+01    0.138E+00
RMM:   2    -0.394160786064E+02   -0.47919E-02   -0.23083E-01  2233   0.498E+00    0.677E-01
RMM:   3    -0.394133035055E+02    0.27751E-02   -0.55685E-02  2431   0.200E+00    0.268E-01
RMM:   4    -0.394135182756E+02   -0.21477E-03   -0.13699E-02  2550   0.888E-01    0.133E-01
RMM:   5    -0.394134976978E+02    0.20578E-04   -0.25378E-03  2576   0.390E-01    0.725E-02
RMM:   6    -0.394134954680E+02    0.22298E-05   -0.55869E-04  1882   0.182E-01
  20 F= -.39413495E+02 E0= -.39413495E+02  d E =-.148260E+01
       N       E                     dE             d eps       ncg     rms          rms(c)
DAV:   1    -0.394283727680E+02   -0.14875E-01   -0.27298E+00  2480   0.146E+01    0.770E-01
RMM:   2    -0.394293509460E+02   -0.97818E-03   -0.72428E-02  2247   0.274E+00    0.370E-01
RMM:   3    -0.394286853362E+02    0.66561E-03   -0.18949E-02  2451   0.112E+00    0.140E-01
RMM:   4    -0.394288181152E+02   -0.13278E-03   -0.44497E-03  2637   0.497E-01    0.754E-02
RMM:   5    -0.394288087531E+02    0.93621E-05   -0.74008E-04  2034   0.209E-01
  21 F= -.39428809E+02 E0= -.39428809E+02  d E =-.149792E+01
       N       E                     dE             d eps       ncg     rms          rms(c)
DAV:   1    -0.396991052384E+02   -0.27029E+00   -0.11943E+01  2260   0.311E+01    0.142E+00
RMM:   2    -0.397153637163E+02   -0.16258E-01   -0.33778E-01  2232   0.608E+00    0.774E-01
RMM:   3    -0.397134192318E+02    0.19445E-02   -0.68993E-02  2456   0.238E+00    0.310E-01
RMM:   4    -0.397133805317E+02    0.38700E-04   -0.15651E-02  2600   0.964E-01    0.156E-01
RMM:   5    -0.397133761312E+02    0.44005E-05   -0.28692E-03  2547   0.444E-01    0.755E-02
RMM:   6    -0.397134038961E+02   -0.27765E-04   -0.72395E-04  1935   0.211E-01
  22 F= -.39713404E+02 E0= -.39713404E+02  d E =-.284595E+00
       N       E                     dE             d eps       ncg     rms          rms(c)
DAV:   1    -0.397531962441E+02   -0.39820E-01   -0.46300E+00  2460   0.194E+01    0.929E-01
RMM:   2    -0.397608539370E+02   -0.76577E-02   -0.14550E-01  2233   0.388E+00    0.480E-01
RMM:   3    -0.397606472746E+02    0.20666E-03   -0.28360E-02  2477   0.153E+00    0.238E-01
RMM:   4    -0.397602772579E+02    0.37002E-03   -0.67115E-03  2607   0.627E-01    0.109E-01
RMM:   5    -0.397602200245E+02    0.57233E-04   -0.12061E-03  2332   0.301E-01    0.429E-02
RMM:   6    -0.397602367824E+02   -0.16758E-04   -0.35981E-04  1521   0.154E-01
  23 F= -.39760237E+02 E0= -.39760237E+02  d E =-.331428E+00
       N       E                     dE             d eps       ncg     rms          rms(c)
DAV:   1    -0.399916502456E+02   -0.23143E+00   -0.10878E+01  2260   0.290E+01    0.110E+00
RMM:   2    -0.400000219454E+02   -0.83717E-02   -0.23738E-01  2236   0.498E+00    0.559E-01
RMM:   3    -0.399995465436E+02    0.47540E-03   -0.41701E-02  2441   0.190E+00    0.312E-01
RMM:   4    -0.399990116749E+02    0.53487E-03   -0.93071E-03  2483   0.778E-01    0.168E-01
RMM:   5    -0.399990146747E+02   -0.29997E-05   -0.22362E-03  2606   0.384E-01    0.822E-02
RMM:   6    -0.399990160789E+02   -0.14043E-05   -0.45015E-04  1727   0.168E-01
  24 F= -.39999016E+02 E0= -.39999016E+02  d E =-.238779E+00
       N       E                     dE             d eps       ncg     rms          rms(c)
DAV:   1    -0.401655308606E+02   -0.16652E+00   -0.24469E+01  2236   0.438E+01    0.166E+00
RMM:   2    -0.401798893467E+02   -0.14358E-01   -0.51372E-01  2236   0.754E+00    0.865E-01
RMM:   3    -0.401767303614E+02    0.31590E-02   -0.82997E-02  2408   0.282E+00    0.470E-01
RMM:   4    -0.401753487191E+02    0.13816E-02   -0.20555E-02  2448   0.116E+00    0.237E-01
RMM:   5    -0.401753885604E+02   -0.39841E-04   -0.46212E-03  2601   0.567E-01    0.106E-01
RMM:   6    -0.401754048055E+02   -0.16245E-04   -0.10839E-03  2247   0.255E-01    0.548E-02
RMM:   7    -0.401754302999E+02   -0.25494E-04   -0.19632E-04  1403   0.118E-01
  25 F= -.40175430E+02 E0= -.40175430E+02  d E =-.415194E+00
       N       E                     dE             d eps       ncg     rms          rms(c)
DAV:   1    -0.401811731917E+02   -0.57684E-02   -0.99548E-01  2976   0.884E+00    0.341E-01
RMM:   2    -0.401809155278E+02    0.25766E-03   -0.18961E-02  2236   0.145E+00    0.174E-01
RMM:   3    -0.401808099254E+02    0.10560E-03   -0.33257E-03  2403   0.539E-01    0.103E-01
RMM:   4    -0.401807428658E+02    0.67060E-04   -0.72971E-04  2168   0.229E-01
  26 F= -.40180743E+02 E0= -.40180743E+02  d E =-.420506E+00
       N       E                     dE             d eps       ncg     rms          rms(c)
DAV:   1    -0.402881534635E+02   -0.10734E+00   -0.59894E+00  2242   0.222E+01    0.118E+00
RMM:   2    -0.402930006277E+02   -0.48472E-02   -0.19578E-01  2235   0.454E+00    0.563E-01
RMM:   3    -0.402902008440E+02    0.27998E-02   -0.34770E-02  2398   0.171E+00    0.249E-01
RMM:   4    -0.402899112041E+02    0.28964E-03   -0.98082E-03  2495   0.782E-01    0.111E-01
RMM:   5    -0.402899659702E+02   -0.54766E-04   -0.18439E-03  2556   0.335E-01    0.528E-02
RMM:   6    -0.402899870010E+02   -0.21031E-04   -0.36079E-04  1605   0.150E-01
  27 F= -.40289987E+02 E0= -.40289987E+02  d E =-.109244E+00
       N       E                     dE             d eps       ncg     rms          rms(c)
DAV:   1    -0.402997206581E+02   -0.97547E-02   -0.93615E-01  2340   0.880E+00    0.464E-01
RMM:   2    -0.403004245628E+02   -0.70390E-03   -0.30860E-02  2236   0.181E+00    0.220E-01
RMM:   3    -0.402999944297E+02    0.43013E-03   -0.58108E-03  2425   0.683E-01    0.964E-02
RMM:   4    -0.402999768720E+02    0.17558E-04   -0.14806E-03  2383   0.305E-01    0.451E-02
RMM:   5    -0.402999867155E+02   -0.98435E-05   -0.24045E-04  1413   0.135E-01
  28 F= -.40299987E+02 E0= -.40299987E+02  d E =-.119244E+00
       N       E                     dE             d eps       ncg     rms          rms(c)
DAV:   1    -0.403812235619E+02   -0.81247E-01   -0.18464E+00  2232   0.123E+01    0.536E-01
RMM:   2    -0.403796781379E+02    0.15454E-02   -0.31137E-02  2233   0.179E+00    0.276E-01
RMM:   3    -0.403793023579E+02    0.37578E-03   -0.85964E-03  2382   0.766E-01    0.991E-02
RMM:   4    -0.403793776958E+02   -0.75338E-04   -0.20403E-03  2635   0.346E-01    0.472E-02
RMM:   5    -0.403793862249E+02   -0.85291E-05   -0.29651E-04  1546   0.136E-01
  29 F= -.40379386E+02 E0= -.40379386E+02  d E =-.793995E-01
       N       E                     dE             d eps       ncg     rms          rms(c)
DAV:   1    -0.404558442194E+02   -0.76467E-01   -0.55073E+00  2232   0.212E+01    0.911E-01
RMM:   2    -0.404516746083E+02    0.41696E-02   -0.91785E-02  2233   0.306E+00    0.477E-01
RMM:   3    -0.404505438286E+02    0.11308E-02   -0.25458E-02  2383   0.132E+00    0.170E-01
RMM:   4    -0.404507669456E+02   -0.22312E-03   -0.60209E-03  2666   0.597E-01    0.833E-02
RMM:   5    -0.404508023561E+02   -0.35410E-04   -0.97688E-04  2207   0.234E-01
  30 F= -.40450802E+02 E0= -.40450802E+02  d E =-.150816E+00
       N       E                     dE             d eps       ncg     rms          rms(c)
DAV:   1    -0.404569824088E+02   -0.62155E-02   -0.69896E-01  2472   0.756E+00    0.328E-01
RMM:   2    -0.404564726626E+02    0.50975E-03   -0.12413E-02  2234   0.112E+00    0.168E-01
RMM:   3    -0.404563873252E+02    0.85337E-04   -0.35469E-03  2390   0.483E-01    0.622E-02
RMM:   4    -0.404564141275E+02   -0.26802E-04   -0.76081E-04  2060   0.218E-01
  31 F= -.40456414E+02 E0= -.40456414E+02  d E =-.156427E+00
       N       E                     dE             d eps       ncg     rms          rms(c)
DAV:   1    -0.405273160811E+02   -0.70929E-01   -0.25853E+00  2232   0.139E+01    0.440E-01
RMM:   2    -0.405273554849E+02   -0.39404E-04   -0.35955E-02  2232   0.194E+00    0.221E-01
RMM:   3    -0.405273534531E+02    0.20318E-05   -0.94420E-03  2417   0.812E-01    0.938E-02
RMM:   4    -0.405274570018E+02   -0.10355E-03   -0.20560E-03  2659   0.348E-01    0.634E-02
RMM:   5    -0.405274539301E+02    0.30717E-05   -0.33210E-04  1556   0.152E-01
  32 F= -.40527454E+02 E0= -.40527454E+02  d E =-.710398E-01
       N       E                     dE             d eps       ncg     rms          rms(c)
DAV:   1    -0.406638136422E+02   -0.13636E+00   -0.23314E+01  2232   0.418E+01    0.130E+00
RMM:   2    -0.406653125706E+02   -0.14989E-02   -0.32234E-01  2232   0.588E+00    0.672E-01
RMM:   3    -0.406643636644E+02    0.94891E-03   -0.82186E-02  2412   0.246E+00    0.273E-01
RMM:   4    -0.406652363139E+02   -0.87265E-03   -0.18513E-02  2687   0.104E+00    0.178E-01
RMM:   5    -0.406651674445E+02    0.68869E-04   -0.30664E-03  2397   0.452E-01    0.744E-02
RMM:   6    -0.406651716975E+02   -0.42530E-05   -0.83686E-04  2133   0.248E-01
  33 F= -.40665172E+02 E0= -.40665172E+02  d E =-.208758E+00
       N       E                     dE             d eps       ncg     rms          rms(c)
DAV:   1    -0.405186269457E+02    0.14654E+00   -0.93535E+01  2232   0.835E+01    0.272E+00
RMM:   2    -0.405348209939E+02   -0.16194E-01   -0.14588E+00  2232   0.125E+01    0.141E+00
RMM:   3    -0.405257877256E+02    0.90333E-02   -0.31542E-01  2409   0.511E+00    0.636E-01
RMM:   4    -0.405282999340E+02   -0.25122E-02   -0.78677E-02  2602   0.204E+00    0.348E-01
RMM:   5    -0.405279922306E+02    0.30770E-03   -0.12241E-02  2450   0.901E-01    0.158E-01
RMM:   6    -0.405281149307E+02   -0.12270E-03   -0.34421E-03  2484   0.470E-01    0.502E-02
RMM:   7    -0.405282050721E+02   -0.90141E-04   -0.11192E-03  2266   0.224E-01    0.348E-02
RMM:   8    -0.405282160574E+02   -0.10985E-04   -0.17838E-04  1358   0.110E-01
  34 F= -.40528216E+02 E0= -.40528216E+02  d E =-.718019E-01
       N       E                     dE             d eps       ncg     rms          rms(c)
DAV:   1    -0.406994191209E+02   -0.17121E+00   -0.52493E+01  2232   0.630E+01    0.224E+00
RMM:   2    -0.406784502218E+02    0.20969E-01   -0.84435E-01  2235   0.908E+00    0.979E-01
RMM:   3    -0.406819053320E+02   -0.34551E-02   -0.20977E-01  2382   0.375E+00    0.547E-01
RMM:   4    -0.406830875122E+02   -0.11822E-02   -0.41870E-02  2677   0.155E+00    0.324E-01
RMM:   5    -0.406831288160E+02   -0.41304E-04   -0.72289E-03  2424   0.686E-01    0.125E-01
RMM:   6    -0.406831726578E+02   -0.43842E-04   -0.22027E-03  2480   0.365E-01    0.762E-02
RMM:   7    -0.406832237162E+02   -0.51058E-04   -0.50104E-04  1805   0.165E-01
  35 F= -.40683224E+02 E0= -.40683224E+02  d E =-.226810E+00
       N       E                     dE             d eps       ncg     rms          rms(c)
DAV:   1    -0.407348395260E+02   -0.51667E-01   -0.81328E+00  2232   0.255E+01    0.111E+00
RMM:   2    -0.407435804319E+02   -0.87409E-02   -0.21219E-01  2232   0.463E+00    0.555E-01
RMM:   3    -0.407416145073E+02    0.19659E-02   -0.40671E-02  2518   0.175E+00    0.259E-01
RMM:   4    -0.407409346473E+02    0.67986E-03   -0.74563E-03  2483   0.713E-01    0.101E-01
RMM:   5    -0.407409989831E+02   -0.64336E-04   -0.18484E-03  2522   0.326E-01    0.539E-02
RMM:   6    -0.407410030395E+02   -0.40564E-05   -0.22959E-04  1429   0.121E-01
  36 F= -.40741003E+02 E0= -.40741003E+02  d E =-.577793E-01
       N       E                     dE             d eps       ncg     rms          rms(c)
DAV:   1    -0.407413833966E+02   -0.38441E-03   -0.45823E-02  2480   0.193E+00    0.821E-02
RMM:   2    -0.407414261246E+02   -0.42728E-04   -0.12045E-03  2232   0.351E-01    0.428E-02
RMM:   3    -0.407414093296E+02    0.16795E-04   -0.17588E-04  1361   0.130E-01
  37 F= -.40741409E+02 E0= -.40741409E+02  d E =-.581856E-01
       N       E                     dE             d eps       ncg     rms          rms(c)
DAV:   1    -0.408164666439E+02   -0.75041E-01   -0.46269E+00  2232   0.183E+01    0.824E-01
RMM:   2    -0.408147326386E+02    0.17340E-02   -0.78189E-02  2232   0.274E+00    0.402E-01
RMM:   3    -0.408130603400E+02    0.16723E-02   -0.23919E-02  2446   0.112E+00    0.131E-01
RMM:   4    -0.408131490913E+02   -0.88751E-04   -0.38901E-03  2576   0.460E-01    0.638E-02
RMM:   5    -0.408131360294E+02    0.13062E-04   -0.64261E-04  1957   0.203E-01
  38 F= -.40813136E+02 E0= -.40813136E+02  d E =-.717267E-01
       N       E                     dE             d eps       ncg     rms          rms(c)
DAV:   1    -0.408954702733E+02   -0.82321E-01   -0.21283E+01  2232   0.393E+01    0.183E+00
RMM:   2    -0.408879282357E+02    0.75420E-02   -0.36978E-01  2232   0.589E+00    0.865E-01
RMM:   3    -0.408803521840E+02    0.75761E-02   -0.10967E-01  2447   0.243E+00    0.313E-01
RMM:   4    -0.408804931754E+02   -0.14099E-03   -0.18317E-02  2561   0.101E+00    0.152E-01
RMM:   5    -0.408804893481E+02    0.38274E-05   -0.33619E-03  2612   0.449E-01    0.644E-02
RMM:   6    -0.408805151482E+02   -0.25800E-04   -0.76480E-04  1987   0.209E-01
  39 F= -.40880515E+02 E0= -.40880515E+02  d E =-.139106E+00
       N       E                     dE             d eps       ncg     rms          rms(c)
DAV:   1    -0.409313406662E+02   -0.50851E-01   -0.57203E+00  2320   0.209E+01    0.803E-01
RMM:   2    -0.409330603404E+02   -0.17197E-02   -0.12830E-01  2235   0.351E+00    0.411E-01
RMM:   3    -0.409328977012E+02    0.16264E-03   -0.28714E-02  2490   0.139E+00    0.206E-01
RMM:   4    -0.409327913086E+02    0.10639E-03   -0.57177E-03  2586   0.573E-01    0.895E-02
RMM:   5    -0.409328118622E+02   -0.20554E-04   -0.11190E-03  2321   0.261E-01    0.409E-02
RMM:   6    -0.409328163132E+02   -0.44510E-05   -0.21348E-04  1475   0.122E-01
  40 F= -.40932816E+02 E0= -.40932816E+02  d E =-.523012E-01
       N       E                     dE             d eps       ncg     rms          rms(c)
DAV:   1    -0.409486309722E+02   -0.15819E-01   -0.37896E+00  2232   0.170E+01    0.667E-01
RMM:   2    -0.409493764925E+02   -0.74552E-03   -0.87042E-02  2238   0.288E+00    0.339E-01
RMM:   3    -0.409492334497E+02    0.14304E-03   -0.18832E-02  2485   0.113E+00    0.177E-01
RMM:   4    -0.409491104404E+02    0.12301E-03   -0.38655E-03  2567   0.471E-01    0.750E-02
RMM:   5    -0.409491178659E+02   -0.74254E-05   -0.73500E-04  2024   0.215E-01
  41 F= -.40949118E+02 E0= -.40949118E+02  d E =-.686027E-01
       N       E                     dE             d eps       ncg     rms          rms(c)
DAV:   1    -0.409851221525E+02   -0.36012E-01   -0.24281E+00  2232   0.135E+01    0.543E-01
RMM:   2    -0.409838198949E+02    0.13023E-02   -0.45342E-02  2232   0.209E+00    0.291E-01
RMM:   3    -0.409834436195E+02    0.37628E-03   -0.12314E-02  2467   0.847E-01    0.119E-01
RMM:   4    -0.409834688802E+02   -0.25261E-04   -0.22270E-03  2572   0.354E-01    0.472E-02
RMM:   5    -0.409834838570E+02   -0.14977E-04   -0.35548E-04  1622   0.152E-01
  42 F= -.40983484E+02 E0= -.40983484E+02  d E =-.343660E-01
       N       E                     dE             d eps       ncg     rms          rms(c)
DAV:   1    -0.410344550965E+02   -0.50986E-01   -0.19531E+01  2232   0.384E+01    0.155E+00
RMM:   2    -0.410239021949E+02    0.10553E-01   -0.37261E-01  2232   0.597E+00    0.837E-01
RMM:   3    -0.410205398413E+02    0.33624E-02   -0.97523E-02  2483   0.241E+00    0.350E-01
RMM:   4    -0.410204695820E+02    0.70259E-04   -0.17511E-02  2604   0.997E-01    0.131E-01
RMM:   5    -0.410206118888E+02   -0.14231E-03   -0.31866E-03  2599   0.426E-01    0.575E-02
RMM:   6    -0.410206431940E+02   -0.31305E-04   -0.58879E-04  1851   0.195E-01
  43 F= -.41020643E+02 E0= -.41020643E+02  d E =-.715253E-01
       N       E                     dE             d eps       ncg     rms          rms(c)
DAV:   1    -0.410407307619E+02   -0.20119E-01   -0.96870E-01  3120   0.850E+00    0.339E-01
RMM:   2    -0.410397741270E+02    0.95663E-03   -0.14410E-02  2232   0.114E+00    0.187E-01
RMM:   3    -0.410394483670E+02    0.32576E-03   -0.31701E-03  2404   0.485E-01    0.761E-02
RMM:   4    -0.410394394647E+02    0.89022E-05   -0.80377E-04  2221   0.215E-01
  44 F= -.41039439E+02 E0= -.41039439E+02  d E =-.187963E-01
       N       E                     dE             d eps       ncg     rms          rms(c)
DAV:   1    -0.410944045872E+02   -0.54956E-01   -0.87170E+00  2232   0.254E+01    0.103E+00
RMM:   2    -0.410868140484E+02    0.75905E-02   -0.14230E-01  2232   0.356E+00    0.572E-01
RMM:   3    -0.410848037913E+02    0.20103E-02   -0.39092E-02  2500   0.151E+00    0.238E-01
RMM:   4    -0.410847581191E+02    0.45672E-04   -0.72881E-03  2620   0.627E-01    0.864E-02
RMM:   5    -0.410848217105E+02   -0.63591E-04   -0.12523E-03  2350   0.271E-01    0.360E-02
RMM:   6    -0.410848368887E+02   -0.15178E-04   -0.22389E-04  1429   0.125E-01
  45 F= -.41084837E+02 E0= -.41084837E+02  d E =-.641937E-01
       N       E                     dE             d eps       ncg     rms          rms(c)
DAV:   1    -0.411664516446E+02   -0.81630E-01   -0.35085E+01  2232   0.509E+01    0.211E+00
RMM:   2    -0.411347096187E+02    0.31742E-01   -0.60354E-01  2232   0.720E+00    0.117E+00
RMM:   3    -0.411263717445E+02    0.83379E-02   -0.15143E-01  2507   0.305E+00    0.545E-01
RMM:   4    -0.411249608395E+02    0.14109E-02   -0.29910E-02  2593   0.128E+00    0.193E-01
RMM:   5    -0.411252781909E+02   -0.31735E-03   -0.57792E-03  2764   0.559E-01    0.876E-02
RMM:   6    -0.411253317498E+02   -0.53559E-04   -0.87908E-04  2060   0.242E-01
  46 F= -.41125332E+02 E0= -.41125332E+02  d E =-.104689E+00
       N       E                     dE             d eps       ncg     rms          rms(c)
DAV:   1    -0.411746548108E+02   -0.49377E-01   -0.24260E+00  2640   0.138E+01    0.558E-01
RMM:   2    -0.411755649711E+02   -0.91016E-03   -0.58321E-02  2242   0.232E+00    0.292E-01
RMM:   3    -0.411750607270E+02    0.50424E-03   -0.10536E-02  2450   0.912E-01    0.150E-01
RMM:   4    -0.411748232087E+02    0.23752E-03   -0.25796E-03  2438   0.399E-01    0.495E-02
RMM:   5    -0.411748444325E+02   -0.21224E-04   -0.54348E-04  1826   0.183E-01
  47 F= -.41174844E+02 E0= -.41174844E+02  d E =-.495127E-01
       N       E                     dE             d eps       ncg     rms          rms(c)
DAV:   1    -0.412136283839E+02   -0.38805E-01   -0.55886E+00  2236   0.209E+01    0.861E-01
RMM:   2    -0.412162509957E+02   -0.26226E-02   -0.13880E-01  2246   0.355E+00    0.446E-01
RMM:   3    -0.412154127574E+02    0.83824E-03   -0.27222E-02  2522   0.141E+00    0.233E-01
RMM:   4    -0.412148475282E+02    0.56523E-03   -0.59482E-03  2559   0.597E-01    0.842E-02
RMM:   5    -0.412148818367E+02   -0.34309E-04   -0.13120E-03  2397   0.275E-01    0.404E-02
RMM:   6    -0.412148884775E+02   -0.66407E-05   -0.21796E-04  1438   0.122E-01
  48 F= -.41214888E+02 E0= -.41214888E+02  d E =-.895567E-01
       N       E                     dE             d eps       ncg     rms          rms(c)
DAV:   1    -0.412196760576E+02   -0.47942E-02   -0.11596E+00  2292   0.948E+00    0.395E-01
RMM:   2    -0.412201753619E+02   -0.49930E-03   -0.28501E-02  2240   0.161E+00    0.203E-01
RMM:   3    -0.412199865579E+02    0.18880E-03   -0.55907E-03  2508   0.640E-01    0.105E-01
RMM:   4    -0.412198685467E+02    0.11801E-03   -0.12373E-03  2303   0.272E-01    0.385E-02
RMM:   5    -0.412198733044E+02   -0.47576E-05   -0.24247E-04  1365   0.130E-01
  49 F= -.41219873E+02 E0= -.41219873E+02  d E =-.945416E-01
       N       E                     dE             d eps       ncg     rms          rms(c)
DAV:   1    -0.412741823997E+02   -0.54314E-01   -0.23426E+00  2236   0.133E+01    0.488E-01
RMM:   2    -0.412740708776E+02    0.11152E-03   -0.44130E-02  2244   0.191E+00    0.249E-01
RMM:   3    -0.412737892727E+02    0.28160E-03   -0.91634E-03  2445   0.804E-01    0.113E-01
RMM:   4    -0.412737436446E+02    0.45628E-04   -0.22195E-03  2515   0.347E-01    0.508E-02
RMM:   5    -0.412737405070E+02    0.31376E-05   -0.40606E-04  1660   0.165E-01
  50 F= -.41273741E+02 E0= -.41273741E+02  d E =-.538672E-01
       N       E                     dE             d eps       ncg     rms          rms(c)
DAV:   1    -0.414235088012E+02   -0.14977E+00   -0.21227E+01  2232   0.400E+01    0.153E+00
RMM:   2    -0.414205745728E+02    0.29342E-02   -0.40613E-01  2240   0.576E+00    0.752E-01
RMM:   3    -0.414177997293E+02    0.27748E-02   -0.81869E-02  2430   0.244E+00    0.337E-01
RMM:   4    -0.414174608673E+02    0.33886E-03   -0.19932E-02  2591   0.104E+00    0.165E-01
RMM:   5    -0.414173959557E+02    0.64912E-04   -0.37871E-03  2539   0.493E-01    0.649E-02
RMM:   6    -0.414174572011E+02   -0.61245E-04   -0.98478E-04  2121   0.234E-01
  51 F= -.41417457E+02 E0= -.41417457E+02  d E =-.197584E+00
       N       E                     dE             d eps       ncg     rms          rms(c)
DAV:   1    -0.416463185974E+02   -0.22892E+00   -0.86314E+01  2232   0.810E+01    0.337E+00
RMM:   2    -0.416242806758E+02    0.22038E-01   -0.17377E+00  2233   0.119E+01    0.153E+00
RMM:   3    -0.416110643668E+02    0.13216E-01   -0.34147E-01  2420   0.505E+00    0.690E-01
RMM:   4    -0.416094764247E+02    0.15879E-02   -0.77666E-02  2569   0.208E+00    0.377E-01
RMM:   5    -0.416090816719E+02    0.39475E-03   -0.14903E-02  2484   0.100E+00    0.170E-01
RMM:   6    -0.416093235074E+02   -0.24184E-03   -0.42481E-03  2705   0.486E-01    0.807E-02
RMM:   7    -0.416093875528E+02   -0.64045E-04   -0.71828E-04  1929   0.202E-01
  52 F= -.41609388E+02 E0= -.41609388E+02  d E =-.389514E+00
       N       E                     dE             d eps       ncg     rms          rms(c)
DAV:   1    -0.416688149522E+02   -0.59491E-01   -0.35751E+02  2232   0.166E+02    0.868E+00
RMM:   2    -0.415649566421E+02    0.10386E+00   -0.91045E+00  2232   0.269E+01    0.327E+00
RMM:   3    -0.415224021594E+02    0.42554E-01   -0.16402E+00  2427   0.114E+01    0.191E+00
RMM:   4    -0.414953803182E+02    0.27022E-01   -0.28687E-01  2395   0.457E+00    0.112E+00
RMM:   5    -0.414878367658E+02    0.75436E-02   -0.73508E-02  2442   0.224E+00    0.509E-01
RMM:   6    -0.414891838082E+02   -0.13470E-02   -0.20809E-02  2607   0.107E+00    0.247E-01
RMM:   7    -0.414894370123E+02   -0.25320E-03   -0.34800E-03  2518   0.501E-01    0.100E-01
RMM:   8    -0.414895491079E+02   -0.11210E-03   -0.84448E-04  2106   0.238E-01    0.261E-02
RMM:   9    -0.414895629189E+02   -0.13811E-04   -0.18643E-04  1355   0.116E-01
  53 F= -.41489563E+02 E0= -.41489563E+02  d E =-.269690E+00
       N       E                     dE             d eps       ncg     rms          rms(c)
DAV:   1    -0.418089403946E+02   -0.31939E+00   -0.13856E+02  2232   0.101E+02    0.424E+00
RMM:   2    -0.417039052183E+02    0.10504E+00   -0.25788E+00  2232   0.154E+01    0.227E+00
RMM:   3    -0.416348840959E+02    0.69021E-01   -0.52079E-01  2403   0.635E+00    0.117E+00
RMM:   4    -0.416229204338E+02    0.11964E-01   -0.13980E-01  2389   0.290E+00    0.581E-01
RMM:   5    -0.416217915682E+02    0.11289E-02   -0.29695E-02  2552   0.136E+00    0.332E-01
RMM:   6    -0.416219141621E+02   -0.12259E-03   -0.65368E-03  2433   0.649E-01    0.102E-01
RMM:   7    -0.416220073711E+02   -0.93209E-04   -0.14989E-03  2390   0.305E-01    0.528E-02
RMM:   8    -0.416220459860E+02   -0.38615E-04   -0.31270E-04  1562   0.149E-01
  54 F= -.41622046E+02 E0= -.41622046E+02  d E =-.402173E+00
       N       E                     dE             d eps       ncg     rms          rms(c)
DAV:   1    -0.416905997501E+02   -0.68592E-01   -0.31500E+00  2296   0.154E+01    0.605E-01
RMM:   2    -0.416885208136E+02    0.20789E-02   -0.49282E-02  2233   0.209E+00    0.311E-01
RMM:   3    -0.416877967927E+02    0.72402E-03   -0.12844E-02  2447   0.907E-01    0.132E-01
RMM:   4    -0.416877595011E+02    0.37292E-04   -0.23876E-03  2475   0.392E-01    0.714E-02
RMM:   5    -0.416877409340E+02    0.18567E-04   -0.46773E-04  1757   0.176E-01
  55 F= -.41687741E+02 E0= -.41687741E+02  d E =-.656949E-01
       N       E                     dE             d eps       ncg     rms          rms(c)
DAV:   1    -0.418647081504E+02   -0.17695E+00   -0.28542E+01  2232   0.464E+01    0.189E+00
RMM:   2    -0.418423369992E+02    0.22371E-01   -0.47012E-01  2232   0.636E+00    0.939E-01
RMM:   3    -0.418364229523E+02    0.59140E-02   -0.11966E-01  2469   0.277E+00    0.499E-01
RMM:   4    -0.418339216556E+02    0.25013E-02   -0.21330E-02  2392   0.121E+00    0.268E-01
RMM:   5    -0.418335483976E+02    0.37326E-03   -0.51867E-03  2495   0.595E-01    0.122E-01
RMM:   6    -0.418336239744E+02   -0.75577E-04   -0.12698E-03  2333   0.271E-01    0.563E-02
RMM:   7    -0.418336483005E+02   -0.24326E-04   -0.20855E-04  1339   0.124E-01
  56 F= -.41833648E+02 E0= -.41833648E+02  d E =-.211602E+00
       N       E                     dE             d eps       ncg     rms          rms(c)
DAV:   1    -0.420433970501E+02   -0.20977E+00   -0.11559E+02  2232   0.934E+01    0.431E+00
RMM:   2    -0.419605927311E+02    0.82804E-01   -0.22282E+00  2232   0.134E+01    0.226E+00
RMM:   3    -0.419173671359E+02    0.43226E-01   -0.50407E-01  2438   0.610E+00    0.139E+00
RMM:   4    -0.418916292903E+02    0.25738E-01   -0.10024E-01  2323   0.269E+00    0.717E-01
RMM:   5    -0.418878407424E+02    0.37885E-02   -0.29783E-02  2407   0.143E+00    0.279E-01
RMM:   6    -0.418883743456E+02   -0.53360E-03   -0.80483E-03  2651   0.665E-01    0.158E-01
RMM:   7    -0.418884691460E+02   -0.94800E-04   -0.12978E-03  2379   0.302E-01    0.485E-02
RMM:   8    -0.418885086736E+02   -0.39528E-04   -0.29433E-04  1533   0.146E-01
  57 F= -.41888509E+02 E0= -.41888509E+02  d E =-.266463E+00
       N       E                     dE             d eps       ncg     rms          rms(c)
DAV:   1    -0.419250996002E+02   -0.36630E-01   -0.12624E+01  2232   0.307E+01    0.130E+00
RMM:   2    -0.419141465254E+02    0.10953E-01   -0.20663E-01  2239   0.421E+00    0.768E-01
RMM:   3    -0.419088753893E+02    0.52711E-02   -0.42046E-02  2396   0.181E+00    0.458E-01
RMM:   4    -0.419051168646E+02    0.37585E-02   -0.13950E-02  2266   0.941E-01    0.162E-01
RMM:   5    -0.419050415421E+02    0.75323E-04   -0.37510E-03  2560   0.499E-01    0.828E-02
RMM:   6    -0.419050269287E+02    0.14613E-04   -0.60379E-04  2002   0.200E-01
  58 F= -.41905027E+02 E0= -.41905027E+02  d E =-.282981E+00
       N       E                     dE             d eps       ncg     rms          rms(c)
DAV:   1    -0.419323863847E+02   -0.27345E-01   -0.14217E-01  2472   0.328E+00    0.236E-01
RMM:   2    -0.419324469544E+02   -0.60570E-04   -0.56599E-03  2232   0.720E-01    0.194E-01
RMM:   3    -0.419317419062E+02    0.70505E-03   -0.72635E-04  2171   0.307E-01    0.779E-02
RMM:   4    -0.419316656922E+02    0.76214E-04   -0.33367E-04  1599   0.158E-01
  59 F= -.41931666E+02 E0= -.41931666E+02  d E =-.266388E-01
       N       E                     dE             d eps       ncg     rms          rms(c)
DAV:   1    -0.419968433966E+02   -0.65101E-01   -0.12739E+00  2240   0.989E+00    0.701E-01
RMM:   2    -0.419962486893E+02    0.59471E-03   -0.49904E-02  2232   0.218E+00    0.550E-01
RMM:   3    -0.419912250272E+02    0.50237E-02   -0.63171E-03  2232   0.905E-01    0.235E-01
RMM:   4    -0.419904910474E+02    0.73398E-03   -0.30861E-03  2354   0.475E-01    0.730E-02
RMM:   5    -0.419904351965E+02    0.55851E-04   -0.58202E-04  1851   0.218E-01
  60 F= -.41990435E+02 E0= -.41990435E+02  d E =-.854083E-01
       N       E                     dE             d eps       ncg     rms          rms(c)
DAV:   1    -0.420265971660E+02   -0.36106E-01   -0.50715E+00  2232   0.201E+01    0.140E+00
RMM:   2    -0.420217836190E+02    0.48135E-02   -0.19647E-01  2232   0.443E+00    0.979E-01
RMM:   3    -0.420081396017E+02    0.13644E-01   -0.24911E-02  2240   0.174E+00    0.460E-01
RMM:   4    -0.420050040273E+02    0.31356E-02   -0.12601E-02  2379   0.950E-01    0.158E-01
RMM:   5    -0.420046377018E+02    0.36633E-03   -0.22970E-03  2416   0.439E-01    0.653E-02
RMM:   6    -0.420046077730E+02    0.29929E-04   -0.42262E-04  1612   0.183E-01
  61 F= -.42004608E+02 E0= -.42004608E+02  d E =-.995808E-01
       N       E                     dE             d eps       ncg     rms          rms(c)
DAV:   1    -0.420212193501E+02   -0.16582E-01   -0.88942E-01  2372   0.831E+00    0.599E-01
RMM:   2    -0.420209617439E+02    0.25761E-03   -0.36424E-02  2232   0.185E+00    0.466E-01
RMM:   3    -0.420170311970E+02    0.39305E-02   -0.43967E-03  2232   0.775E-01    0.203E-01
RMM:   4    -0.420165408679E+02    0.49033E-03   -0.21468E-03  2344   0.384E-01    0.751E-02
RMM:   5    -0.420164712063E+02    0.69662E-04   -0.36952E-04  1495   0.188E-01
  62 F= -.42016471E+02 E0= -.42016471E+02  d E =-.111444E+00
       N       E                     dE             d eps       ncg     rms          rms(c)
DAV:   1    -0.420501467597E+02   -0.33606E-01   -0.35063E-01  2248   0.498E+00    0.300E-01
RMM:   2    -0.420496783031E+02    0.46846E-03   -0.87339E-03  2260   0.894E-01    0.194E-01
RMM:   3    -0.420491268662E+02    0.55144E-03   -0.17617E-03  2378   0.379E-01    0.993E-02
RMM:   4    -0.420489083128E+02    0.21855E-03   -0.46774E-04  1743   0.184E-01    0.293E-02
RMM:   5    -0.420489035007E+02    0.48122E-05   -0.94446E-05  1280   0.850E-02
  63 F= -.42048904E+02 E0= -.42048904E+02  d E =-.324323E-01
       N       E                     dE             d eps       ncg     rms          rms(c)
DAV:   1    -0.421379279964E+02   -0.89020E-01   -0.31495E+00  2232   0.149E+01    0.857E-01
RMM:   2    -0.421337152671E+02    0.42127E-02   -0.75214E-02  2253   0.265E+00    0.507E-01
RMM:   3    -0.421307952275E+02    0.29200E-02   -0.15749E-02  2398   0.108E+00    0.286E-01
RMM:   4    -0.421291487424E+02    0.16465E-02   -0.40033E-03  2253   0.531E-01    0.902E-02
RMM:   5    -0.421291279040E+02    0.20838E-04   -0.10307E-03  2372   0.259E-01    0.414E-02
RMM:   6    -0.421291324205E+02   -0.45165E-05   -0.22587E-04  1383   0.125E-01
  64 F= -.42129132E+02 E0= -.42129132E+02  d E =-.112661E+00
       N       E                     dE             d eps       ncg     rms          rms(c)
DAV:   1    -0.422466703741E+02   -0.11754E+00   -0.12591E+01  2232   0.300E+01    0.155E+00
RMM:   2    -0.422323999921E+02    0.14270E-01   -0.28548E-01  2249   0.521E+00    0.831E-01
RMM:   3    -0.422275626908E+02    0.48373E-02   -0.61407E-02  2413   0.200E+00    0.477E-01
RMM:   4    -0.422229568596E+02    0.46058E-02   -0.13707E-02  2294   0.964E-01    0.181E-01
RMM:   5    -0.422228251808E+02    0.13168E-03   -0.37335E-03  2470   0.484E-01    0.818E-02
RMM:   6    -0.422228456385E+02   -0.20458E-04   -0.11374E-03  2325   0.251E-01    0.401E-02
RMM:   7    -0.422228571816E+02   -0.11543E-04   -0.16896E-04  1317   0.118E-01
  65 F= -.42222857E+02 E0= -.42222857E+02  d E =-.206386E+00
       N       E                     dE             d eps       ncg     rms          rms(c)
DAV:   1    -0.422224542648E+02    0.39137E-03   -0.50332E+01  2232   0.603E+01    0.288E+00
RMM:   2    -0.421921866425E+02    0.30268E-01   -0.11959E+00  2246   0.105E+01    0.149E+00
RMM:   3    -0.421727896335E+02    0.19397E-01   -0.27443E-01  2451   0.401E+00    0.731E-01
RMM:   4    -0.421637316038E+02    0.90580E-02   -0.46334E-02  2310   0.179E+00    0.287E-01
RMM:   5    -0.421639113036E+02   -0.17970E-03   -0.12672E-02  2567   0.865E-01    0.172E-01
RMM:   6    -0.421637527595E+02    0.15854E-03   -0.66597E-03  2428   0.516E-01    0.981E-02
RMM:   7    -0.421637138103E+02    0.38949E-04   -0.89199E-04  2249   0.260E-01
  66 F= -.42163714E+02 E0= -.42163714E+02  d E =-.147243E+00
       N       E                     dE             d eps       ncg     rms          rms(c)
DAV:   1    -0.422764860670E+02   -0.11273E+00   -0.25745E+01  2232   0.429E+01    0.199E+00
RMM:   2    -0.422489307449E+02    0.27555E-01   -0.54100E-01  2245   0.720E+00    0.109E+00
RMM:   3    -0.422378983856E+02    0.11032E-01   -0.13590E-01  2419   0.274E+00    0.524E-01
RMM:   4    -0.422324333167E+02    0.54651E-02   -0.23844E-02  2294   0.127E+00    0.225E-01
RMM:   5    -0.422324303947E+02    0.29220E-05   -0.71723E-03  2449   0.647E-01    0.110E-01
RMM:   6    -0.422323121335E+02    0.11826E-03   -0.19402E-03  2520   0.325E-01    0.642E-02
RMM:   7    -0.422323523198E+02   -0.40186E-04   -0.86819E-04  2002   0.184E-01
  67 F= -.42232352E+02 E0= -.42232352E+02  d E =-.215881E+00
       N       E                     dE             d eps       ncg     rms          rms(c)
DAV:   1    -0.422532364052E+02   -0.20924E-01   -0.13534E-01  2352   0.307E+00    0.147E-01
RMM:   2    -0.422533282818E+02   -0.91877E-04   -0.26168E-03  2236   0.485E-01    0.772E-02
RMM:   3    -0.422532912610E+02    0.37021E-04   -0.59670E-04  1838   0.193E-01
  68 F= -.42253291E+02 E0= -.42253291E+02  d E =-.209389E-01
       N       E                     dE             d eps       ncg     rms          rms(c)
DAV:   1    -0.423160821705E+02   -0.62754E-01   -0.12093E+00  2232   0.915E+00    0.422E-01
RMM:   2    -0.423148522182E+02    0.12300E-02   -0.21007E-02  2240   0.138E+00    0.223E-01
RMM:   3    -0.423143967542E+02    0.45546E-03   -0.52455E-03  2370   0.572E-01    0.946E-02
RMM:   4    -0.423143473821E+02    0.49372E-04   -0.12475E-03  2392   0.268E-01    0.406E-02
RMM:   5    -0.423143615283E+02   -0.14146E-04   -0.23988E-04  1385   0.120E-01
  69 F= -.42314362E+02 E0= -.42314362E+02  d E =-.820092E-01
       N       E                     dE             d eps       ncg     rms          rms(c)
DAV:   1    -0.424389535915E+02   -0.12461E+00   -0.48727E+00  2236   0.184E+01    0.844E-01
RMM:   2    -0.424322536185E+02    0.67000E-02   -0.87099E-02  2241   0.280E+00    0.427E-01
RMM:   3    -0.424299225078E+02    0.23311E-02   -0.21027E-02  2353   0.115E+00    0.185E-01
RMM:   4    -0.424297337462E+02    0.18876E-03   -0.49931E-03  2433   0.531E-01    0.714E-02
RMM:   5    -0.424297979982E+02   -0.64252E-04   -0.11076E-03  2334   0.233E-01    0.389E-02
RMM:   6    -0.424298129002E+02   -0.14902E-04   -0.19699E-04  1343   0.112E-01
  70 F= -.42429813E+02 E0= -.42429813E+02  d E =-.197461E+00
       N       E                     dE             d eps       ncg     rms          rms(c)
DAV:   1    -0.426593848912E+02   -0.22959E+00   -0.19628E+01  2256   0.369E+01    0.180E+00
RMM:   2    -0.426280639172E+02    0.31321E-01   -0.37248E-01  2250   0.569E+00    0.850E-01
RMM:   3    -0.426179344939E+02    0.10129E-01   -0.86888E-02  2318   0.238E+00    0.382E-01
RMM:   4    -0.426173248495E+02    0.60964E-03   -0.21874E-02  2451   0.108E+00    0.150E-01
RMM:   5    -0.426175399650E+02   -0.21512E-03   -0.47861E-03  2653   0.474E-01    0.810E-02
RMM:   6    -0.426175828066E+02   -0.42842E-04   -0.87104E-04  2024   0.211E-01
  71 F= -.42617583E+02 E0= -.42617583E+02  d E =-.385230E+00
       N       E                     dE             d eps       ncg     rms          rms(c)
DAV:   1    -0.428053884271E+02   -0.18785E+00   -0.79777E+01  2232   0.750E+01    0.443E+00
RMM:   2    -0.426563552822E+02    0.14903E+00   -0.17402E+00  2235   0.122E+01    0.180E+00
RMM:   3    -0.426147927108E+02    0.41563E-01   -0.42209E-01  2324   0.523E+00    0.887E-01
RMM:   4    -0.426091788730E+02    0.56138E-02   -0.90445E-02  2445   0.227E+00    0.390E-01
RMM:   5    -0.426100817804E+02   -0.90291E-03   -0.23955E-02  2624   0.102E+00    0.180E-01
RMM:   6    -0.426104479524E+02   -0.36617E-03   -0.46688E-03  2653   0.462E-01    0.833E-02
RMM:   7    -0.426104280176E+02    0.19935E-04   -0.93111E-04  2041   0.215E-01
  72 F= -.42610428E+02 E0= -.42610428E+02  d E =-.378076E+00
       N       E                     dE             d eps       ncg     rms          rms(c)
DAV:   1    -0.427676016822E+02   -0.15715E+00   -0.29185E+01  2232   0.456E+01    0.232E+00
RMM:   2    -0.427112088092E+02    0.56393E-01   -0.59984E-01  2252   0.748E+00    0.114E+00
RMM:   3    -0.426931430241E+02    0.18066E-01   -0.14600E-01  2347   0.299E+00    0.440E-01
RMM:   4    -0.426923447905E+02    0.79823E-03   -0.28514E-02  2443   0.130E+00    0.202E-01
RMM:   5    -0.426923781263E+02   -0.33336E-04   -0.75140E-03  2490   0.607E-01    0.662E-02
RMM:   6    -0.426925623418E+02   -0.18422E-03   -0.21160E-03  2698   0.287E-01    0.466E-02
RMM:   7    -0.426925859476E+02   -0.23606E-04   -0.18995E-04  1396   0.107E-01
  73 F= -.42692586E+02 E0= -.42692586E+02  d E =-.460234E+00
       N       E                     dE             d eps       ncg     rms          rms(c)
DAV:   1    -0.427087788005E+02   -0.16216E-01   -0.25624E+00  2324   0.135E+01    0.701E-01
RMM:   2    -0.427033833638E+02    0.53954E-02   -0.51229E-02  2262   0.213E+00    0.323E-01
RMM:   3    -0.427017812612E+02    0.16021E-02   -0.12601E-02  2337   0.884E-01    0.137E-01
RMM:   4    -0.427016251099E+02    0.15615E-03   -0.23734E-03  2428   0.389E-01    0.669E-02
RMM:   5    -0.427016261289E+02   -0.10191E-05   -0.60675E-04  2021   0.181E-01
  74 F= -.42701626E+02 E0= -.42701626E+02  d E =-.469274E+00
       N       E                     dE             d eps       ncg     rms          rms(c)
DAV:   1    -0.427552616723E+02   -0.53637E-01   -0.48910E-01  2480   0.609E+00    0.322E-01
RMM:   2    -0.427558171288E+02   -0.55546E-03   -0.15898E-02  2232   0.126E+00    0.162E-01
RMM:   3    -0.427555666274E+02    0.25050E-03   -0.27027E-03  2397   0.458E-01    0.719E-02
RMM:   4    -0.427555201225E+02    0.46505E-04   -0.63440E-04  1872   0.196E-01
  75 F= -.42755520E+02 E0= -.42755520E+02  d E =-.538940E-01
       N       E                     dE             d eps       ncg     rms          rms(c)
DAV:   1    -0.428456165492E+02   -0.90050E-01   -0.44377E+00  2240   0.184E+01    0.102E+00
RMM:   2    -0.428504046122E+02   -0.47881E-02   -0.14644E-01  2232   0.387E+00    0.512E-01
RMM:   3    -0.428480303291E+02    0.23743E-02   -0.24061E-02  2365   0.141E+00    0.225E-01
RMM:   4    -0.428476338782E+02    0.39645E-03   -0.61066E-03  2525   0.604E-01    0.127E-01
RMM:   5    -0.428475080263E+02    0.12585E-03   -0.11214E-03  2256   0.265E-01    0.655E-02
RMM:   6    -0.428475922988E+02   -0.84273E-04   -0.20706E-04  1349   0.114E-01
  76 F= -.42847592E+02 E0= -.42847592E+02  d E =-.145966E+00
       N       E                     dE             d eps       ncg     rms          rms(c)
DAV:   1    -0.428516431734E+02   -0.41351E-02   -0.44809E-01  2324   0.591E+00    0.327E-01
RMM:   2    -0.428522919931E+02   -0.64882E-03   -0.15357E-02  2232   0.125E+00    0.167E-01
RMM:   3    -0.428519441650E+02    0.34783E-03   -0.24752E-03  2362   0.453E-01    0.745E-02
RMM:   4    -0.428518591334E+02    0.85032E-04   -0.61241E-04  1879   0.195E-01
  77 F= -.42851859E+02 E0= -.42851859E+02  d E =-.150233E+00
       N       E                     dE             d eps       ncg     rms          rms(c)
DAV:   1    -0.429063921089E+02   -0.54448E-01   -0.11379E+00  2232   0.958E+00    0.432E-01
RMM:   2    -0.429060663512E+02    0.32576E-03   -0.23761E-02  2232   0.163E+00    0.221E-01
RMM:   3    -0.429053926272E+02    0.67372E-03   -0.42977E-03  2311   0.596E-01    0.913E-02
RMM:   4    -0.429052953318E+02    0.97295E-04   -0.12364E-03  2437   0.271E-01    0.456E-02
RMM:   5    -0.429053070501E+02   -0.11718E-04   -0.15656E-04  1306   0.109E-01
  78 F= -.42905307E+02 E0= -.42905307E+02  d E =-.534479E-01
       N       E                     dE             d eps       ncg     rms          rms(c)
DAV:   1    -0.429479939480E+02   -0.42699E-01   -0.46517E+00  2232   0.194E+01    0.898E-01
RMM:   2    -0.429469679602E+02    0.10260E-02   -0.97993E-02  2232   0.333E+00    0.451E-01
RMM:   3    -0.429443789590E+02    0.25890E-02   -0.18081E-02  2307   0.122E+00    0.181E-01
RMM:   4    -0.429442453984E+02    0.13356E-03   -0.51941E-03  2544   0.559E-01    0.897E-02
RMM:   5    -0.429442893792E+02   -0.43981E-04   -0.74075E-04  1989   0.213E-01
  79 F= -.42944289E+02 E0= -.42944289E+02  d E =-.924302E-01
       N       E                     dE             d eps       ncg     rms          rms(c)
DAV:   1    -0.429973939239E+02   -0.53149E-01   -0.19643E+00  2232   0.124E+01    0.466E-01
RMM:   2    -0.429969940373E+02    0.39989E-03   -0.32379E-02  2232   0.190E+00    0.193E-01
RMM:   3    -0.429967801840E+02    0.21385E-03   -0.55961E-03  2349   0.687E-01    0.104E-01
RMM:   4    -0.429967932258E+02   -0.13042E-04   -0.15463E-03  2378   0.313E-01    0.477E-02
RMM:   5    -0.429968056560E+02   -0.12430E-04   -0.28370E-04  1465   0.138E-01
  80 F= -.42996806E+02 E0= -.42996806E+02  d E =-.525163E-01
       N       E                     dE             d eps       ncg     rms          rms(c)
DAV:   1    -0.430416635708E+02   -0.44870E-01   -0.53143E+00  2232   0.204E+01    0.796E-01
RMM:   2    -0.430411537760E+02    0.50979E-03   -0.88180E-02  2232   0.313E+00    0.325E-01
RMM:   3    -0.430407322218E+02    0.42155E-03   -0.15472E-02  2344   0.114E+00    0.177E-01
RMM:   4    -0.430407786415E+02   -0.46420E-04   -0.42677E-03  2471   0.521E-01    0.854E-02
RMM:   5    -0.430408445777E+02   -0.65936E-04   -0.89888E-04  2075   0.227E-01
  81 F= -.43040845E+02 E0= -.43040845E+02  d E =-.965552E-01
       N       E                     dE             d eps       ncg     rms          rms(c)
DAV:   1    -0.430440232198E+02   -0.32446E-02   -0.48634E-01  2478   0.616E+00    0.242E-01
RMM:   2    -0.430436137545E+02    0.40947E-03   -0.83621E-03  2236   0.965E-01    0.102E-01
RMM:   3    -0.430435466939E+02    0.67061E-04   -0.15258E-03  2346   0.354E-01    0.572E-02
RMM:   4    -0.430435231906E+02    0.23503E-04   -0.39458E-04  1686   0.164E-01
  82 F= -.43043523E+02 E0= -.43043523E+02  d E =-.992338E-01
       N       E                     dE             d eps       ncg     rms          rms(c)
DAV:   1    -0.430770624558E+02   -0.33516E-01   -0.71180E-01  2260   0.738E+00    0.363E-01
RMM:   2    -0.430759985995E+02    0.10639E-02   -0.17980E-02  2245   0.134E+00    0.194E-01
RMM:   3    -0.430756734914E+02    0.32511E-03   -0.38523E-03  2385   0.520E-01    0.920E-02
RMM:   4    -0.430757511666E+02   -0.77675E-04   -0.66594E-04  2080   0.222E-01
  83 F= -.43075751E+02 E0= -.43075751E+02  d E =-.322280E-01
       N       E                     dE             d eps       ncg     rms          rms(c)
DAV:   1    -0.431073097336E+02   -0.31636E-01   -0.28821E+00  2232   0.148E+01    0.722E-01
RMM:   2    -0.431034078478E+02    0.39019E-02   -0.71776E-02  2252   0.268E+00    0.389E-01
RMM:   3    -0.431018994389E+02    0.15084E-02   -0.15657E-02  2389   0.104E+00    0.185E-01
RMM:   4    -0.431019202171E+02   -0.20778E-04   -0.27314E-03  2346   0.445E-01    0.844E-02
RMM:   5    -0.431018958865E+02    0.24331E-04   -0.69356E-04  2046   0.218E-01
  84 F= -.43101896E+02 E0= -.43101896E+02  d E =-.583727E-01
       N       E                     dE             d eps       ncg     rms          rms(c)
DAV:   1    -0.431251263162E+02   -0.23206E-01   -0.53272E-01  2344   0.630E+00    0.272E-01
RMM:   2    -0.431242354564E+02    0.89086E-03   -0.13750E-02  2259   0.116E+00    0.135E-01
RMM:   3    -0.431240938217E+02    0.14163E-03   -0.25534E-03  2360   0.439E-01    0.680E-02
RMM:   4    -0.431241282212E+02   -0.34400E-04   -0.59983E-04  2099   0.196E-01
  85 F= -.43124128E+02 E0= -.43124128E+02  d E =-.222323E-01
       N       E                     dE             d eps       ncg     rms          rms(c)
DAV:   1    -0.431374638925E+02   -0.13370E-01   -0.44282E-01  2272   0.574E+00    0.251E-01
RMM:   2    -0.431371014607E+02    0.36243E-03   -0.11565E-02  2257   0.106E+00    0.126E-01
RMM:   3    -0.431369694257E+02    0.13204E-03   -0.21869E-03  2362   0.404E-01    0.639E-02
RMM:   4    -0.431369732384E+02   -0.38127E-05   -0.51771E-04  1828   0.180E-01
  86 F= -.43136973E+02 E0= -.43136973E+02  d E =-.350774E-01
       N       E                     dE             d eps       ncg     rms          rms(c)
DAV:   1    -0.431417101713E+02   -0.47407E-02   -0.17747E+00  2232   0.115E+01    0.498E-01
RMM:   2    -0.431410748610E+02    0.63531E-03   -0.45229E-02  2252   0.211E+00    0.250E-01
RMM:   3    -0.431404765570E+02    0.59830E-03   -0.85848E-03  2356   0.805E-01    0.121E-01
RMM:   4    -0.431403620757E+02    0.11448E-03   -0.20007E-03  2357   0.357E-01    0.457E-02
RMM:   5    -0.431403849150E+02   -0.22839E-04   -0.48424E-04  1789   0.166E-01
  87 F= -.43140385E+02 E0= -.43140385E+02  d E =-.384890E-01
       N       E                     dE             d eps       ncg     rms          rms(c)
DAV:   1    -0.431426590253E+02   -0.22969E-02   -0.27100E-01  2296   0.449E+00    0.197E-01
RMM:   2    -0.431425880810E+02    0.70944E-04   -0.66763E-03  2239   0.811E-01    0.978E-02
RMM:   3    -0.431424817104E+02    0.10637E-03   -0.11773E-03  2347   0.306E-01    0.462E-02
RMM:   4    -0.431424529851E+02    0.28725E-04   -0.26181E-04  1350   0.134E-01
  88 F= -.43142453E+02 E0= -.43142453E+02  d E =-.405571E-01
       N       E                     dE             d eps       ncg     rms          rms(c)
DAV:   1    -0.431491472222E+02   -0.66655E-02   -0.24821E-01  2234   0.427E+00    0.172E-01
RMM:   2    -0.431491821646E+02   -0.34942E-04   -0.55983E-03  2232   0.720E-01    0.776E-02
RMM:   3    -0.431491435759E+02    0.38589E-04   -0.90794E-04  2212   0.273E-01
  89 F= -.43149144E+02 E0= -.43149144E+02  d E =-.669059E-02
       N       E                     dE             d eps       ncg     rms          rms(c)
DAV:   1    -0.431528494433E+02   -0.36673E-02   -0.49737E-01  2232   0.604E+00    0.243E-01
RMM:   2    -0.431529783166E+02   -0.12887E-03   -0.11532E-02  2234   0.103E+00    0.114E-01
RMM:   3    -0.431529346108E+02    0.43706E-04   -0.21336E-03  2422   0.399E-01    0.608E-02
RMM:   4    -0.431529115749E+02    0.23036E-04   -0.39609E-04  1743   0.170E-01
  90 F= -.43152912E+02 E0= -.43152912E+02  d E =-.104586E-01
       N       E                     dE             d eps       ncg     rms          rms(c)
DAV:   1    -0.431605901474E+02   -0.76555E-02   -0.25416E-01  2232   0.428E+00    0.169E-01
RMM:   2    -0.431603791034E+02    0.21104E-03   -0.40961E-03  2243   0.618E-01    0.783E-02
RMM:   3    -0.431602826738E+02    0.96430E-04   -0.72288E-04  2087   0.240E-01
  91 F= -.43160283E+02 E0= -.43160283E+02  d E =-.737110E-02
       N       E                     dE             d eps       ncg     rms          rms(c)
DAV:   1    -0.431813281355E+02   -0.20949E-01   -0.22885E+00  2232   0.129E+01    0.517E-01
RMM:   2    -0.431799064025E+02    0.14217E-02   -0.35833E-02  2243   0.184E+00    0.242E-01
RMM:   3    -0.431791936784E+02    0.71272E-03   -0.61880E-03  2345   0.716E-01    0.105E-01
RMM:   4    -0.431791033438E+02    0.90335E-04   -0.15181E-03  2381   0.321E-01    0.358E-02
RMM:   5    -0.431791244126E+02   -0.21069E-04   -0.25759E-04  1425   0.136E-01
  92 F= -.43179124E+02 E0= -.43179124E+02  d E =-.262128E-01
       N       E                     dE             d eps       ncg     rms          rms(c)
DAV:   1    -0.432095957073E+02   -0.30492E-01   -0.92451E+00  2232   0.259E+01    0.105E+00
RMM:   2    -0.432040697250E+02    0.55260E-02   -0.14132E-01  2236   0.368E+00    0.485E-01
RMM:   3    -0.432013414024E+02    0.27283E-02   -0.24339E-02  2326   0.143E+00    0.204E-01
RMM:   4    -0.432010101642E+02    0.33124E-03   -0.58756E-03  2370   0.638E-01    0.728E-02
RMM:   5    -0.432010867034E+02   -0.76539E-04   -0.12286E-03  2259   0.274E-01    0.373E-02
RMM:   6    -0.432011039244E+02   -0.17221E-04   -0.21996E-04  1360   0.125E-01
  93 F= -.43201104E+02 E0= -.43201104E+02  d E =-.481923E-01
       N       E                     dE             d eps       ncg     rms          rms(c)
DAV:   1    -0.432054777614E+02   -0.43911E-02   -0.19295E+00  2232   0.118E+01    0.491E-01
RMM:   2    -0.432040818800E+02    0.13959E-02   -0.30116E-02  2241   0.169E+00    0.225E-01
RMM:   3    -0.432034504392E+02    0.63144E-03   -0.50710E-03  2327   0.655E-01    0.976E-02
RMM:   4    -0.432033672278E+02    0.83211E-04   -0.12412E-03  2326   0.293E-01    0.354E-02
RMM:   5    -0.432033827561E+02   -0.15528E-04   -0.22767E-04  1371   0.126E-01
  94 F= -.43203383E+02 E0= -.43203383E+02  d E =-.504712E-01
       N       E                     dE             d eps       ncg     rms          rms(c)
DAV:   1    -0.432070405647E+02   -0.36733E-02   -0.23502E+00  2232   0.133E+01    0.556E-01
RMM:   2    -0.432072214391E+02   -0.18087E-03   -0.47634E-02  2232   0.218E+00    0.247E-01
RMM:   3    -0.432067075541E+02    0.51389E-03   -0.75320E-03  2356   0.830E-01    0.115E-01
RMM:   4    -0.432066132751E+02    0.94279E-04   -0.19391E-03  2358   0.359E-01    0.510E-02
RMM:   5    -0.432066402166E+02   -0.26942E-04   -0.39072E-04  1645   0.164E-01
  95 F= -.43206640E+02 E0= -.43206640E+02  d E =-.325746E-02
       N       E                     dE             d eps       ncg     rms          rms(c)
DAV:   1    -0.432085234309E+02   -0.19102E-02   -0.33587E-01  2236   0.502E+00    0.213E-01
RMM:   2    -0.432085550831E+02   -0.31652E-04   -0.67466E-03  2232   0.815E-01    0.939E-02
RMM:   3    -0.432084851280E+02    0.69955E-04   -0.99409E-04  2245   0.308E-01
  96 F= -.43208485E+02 E0= -.43208485E+02  d E =-.510237E-02
       N       E                     dE             d eps       ncg     rms          rms(c)
DAV:   1    -0.432168041920E+02   -0.82491E-02   -0.12673E+00  2232   0.962E+00    0.363E-01
RMM:   2    -0.432169017347E+02   -0.97543E-04   -0.19646E-02  2232   0.142E+00    0.156E-01
RMM:   3    -0.432167148890E+02    0.18685E-03   -0.31573E-03  2323   0.526E-01    0.605E-02
RMM:   4    -0.432167360046E+02   -0.21116E-04   -0.82167E-04  2209   0.232E-01
  97 F= -.43216736E+02 E0= -.43216736E+02  d E =-.825088E-02
       N       E                     dE             d eps       ncg     rms          rms(c)
DAV:   1    -0.432195525531E+02   -0.28377E-02   -0.13825E+00  2232   0.101E+01    0.379E-01
RMM:   2    -0.432197816845E+02   -0.22913E-03   -0.22332E-02  2232   0.150E+00    0.165E-01
RMM:   3    -0.432196291458E+02    0.15254E-03   -0.37512E-03  2335   0.562E-01    0.691E-02
RMM:   4    -0.432196557534E+02   -0.26608E-04   -0.10021E-03  2294   0.249E-01    0.297E-02
RMM:   5    -0.432196644029E+02   -0.86494E-05   -0.16838E-04  1308   0.108E-01
  98 F= -.43219664E+02 E0= -.43219664E+02  d E =-.111793E-01
       N       E                     dE             d eps       ncg     rms          rms(c)
DAV:   1    -0.432239824596E+02   -0.43267E-02   -0.24676E-01  2340   0.418E+00    0.153E-01
RMM:   2    -0.432239150193E+02    0.67440E-04   -0.34182E-03  2234   0.573E-01    0.677E-02
RMM:   3    -0.432238763166E+02    0.38703E-04   -0.72772E-04  2138   0.239E-01
  99 F= -.43223876E+02 E0= -.43223876E+02  d E =-.421191E-02
       N       E                     dE             d eps       ncg     rms          rms(c)
DAV:   1    -0.432344564583E+02   -0.10541E-01   -0.22120E+00  2232   0.125E+01    0.461E-01
RMM:   2    -0.432333513683E+02    0.11051E-02   -0.29915E-02  2232   0.171E+00    0.206E-01
RMM:   3    -0.432329060259E+02    0.44534E-03   -0.60251E-03  2304   0.699E-01    0.903E-02
RMM:   4    -0.432329336247E+02   -0.27599E-04   -0.14548E-03  2327   0.319E-01    0.478E-02
RMM:   5    -0.432329562198E+02   -0.22595E-04   -0.29134E-04  1462   0.141E-01
 100 F= -.43232956E+02 E0= -.43232956E+02  d E =-.132918E-01
