 vasp.6.2.0 18Jan21 (build Feb 25 2021 07:51:20) complex                         
 executed on             LinuxPGI date 2021.05.17  20:05:21
 running on    1 total cores
 distrk:  each k-point on    1 cores,    1 groups
 distr:  one band on NCORE=   1 cores,    1 groups


--------------------------------------------------------------------------------------------------------


 INCAR:
   ALGO = Fast
   EDIFF = 1E-4
   ENCUT = 500
   IBRION = 2
   ISIF = 3
   ISMEAR = -5
   SIGMA = 0.2
   NSW = 100
   PREC = Normal
   LWAVE = .FALSE.
   LCHARG = .FALSE.

 POTCAR:    PAW_PBE Si 05Jan2001                  
 POTCAR:    PAW_PBE N 08Apr2002                   
 POTCAR:    PAW_PBE Si 05Jan2001                  
   VRHFIN =Si: s2p2                                                                                 
   LEXCH  = PE                                                                                      
   EATOM  =   103.0669 eV,    7.5752 Ry                                                             
                                                                                                    
   TITEL  = PAW_PBE Si 05Jan2001                                                                    
   LULTRA =        F    use ultrasoft PP ?                                                          
   IUNSCR =        1    unscreen: 0-lin 1-nonlin 2-no                                               
   RPACOR =    1.500    partial core radius                                                         
   POMASS =   28.085; ZVAL   =    4.000    mass and valenz                                          
   RCORE  =    1.900    outmost cutoff radius                                                       
   RWIGS  =    2.480; RWIGS  =    1.312    wigner-seitz radius (au A)                               
   ENMAX  =  245.345; ENMIN  =  184.009 eV                                                          
   ICORE  =        2    local potential                                                             
   LCOR   =        T    correct aug charges                                                         
   LPAW   =        T    paw PP                                                                      
   EAUG   =  322.069                                                                                
   DEXC   =    0.000                                                                                
   RMAX   =    1.950    core radius for proj-oper                                                   
   RAUG   =    1.300    factor for augmentation sphere                                              
   RDEP   =    1.993    radius for radial grids                                                     
   RDEPT  =    1.837    core radius for aug-charge                                                  
                                                                                                    
   Atomic configuration                                                                             
    6 entries                                                                                       
     n  l   j            E        occ.                                                              
     1  0  0.50     -1785.8828   2.0000                                                             
     2  0  0.50      -139.4969   2.0000                                                             
     2  1  1.50       -95.5546   6.0000                                                             
     3  0  0.50       -10.8127   2.0000                                                             
     3  1  0.50        -4.0811   2.0000                                                             
     3  2  1.50        -4.0817   0.0000                                                             
   Description                                                                                      
     l       E           TYP  RCUT    TYP  RCUT                                                     
     0    -10.8127223     23  1.900                                                                 
     0     -7.6451159     23  1.900                                                                 
     1     -4.0811372     23  1.900                                                                 
     1      2.4879257     23  1.900                                                                 
     2     -4.0817478      7  1.900                                                                 
  local pseudopotential read in
  partial core-charges read in
  partial kinetic energy density read in
  atomic valenz-charges read in
  non local Contribution for L=            0  read in
    real space projection operators read in
  non local Contribution for L=            0  read in
    real space projection operators read in
  non local Contribution for L=            1  read in
    real space projection operators read in
  non local Contribution for L=            1  read in
    real space projection operators read in
    PAW grid and wavefunctions read in
 
   number of l-projection  operators is LMAX  =            4
   number of lm-projection operators is LMMAX =            8
 
 POTCAR:    PAW_PBE N 08Apr2002                   
   VRHFIN =N: s2p3                                                                                  
   LEXCH  = PE                                                                                      
   EATOM  =   264.5486 eV,   19.4438 Ry                                                             
                                                                                                    
   TITEL  = PAW_PBE N 08Apr2002                                                                     
   LULTRA =        F    use ultrasoft PP ?                                                          
   IUNSCR =        1    unscreen: 0-lin 1-nonlin 2-no                                               
   RPACOR =    1.200    partial core radius                                                         
   POMASS =   14.001; ZVAL   =    5.000    mass and valenz                                          
   RCORE  =    1.500    outmost cutoff radius                                                       
   RWIGS  =    1.400; RWIGS  =    0.741    wigner-seitz radius (au A)                               
   ENMAX  =  400.000; ENMIN  =  300.000 eV                                                          
   ICORE  =        2    local potential                                                             
   LCOR   =        T    correct aug charges                                                         
   LPAW   =        T    paw PP                                                                      
   EAUG   =  627.112                                                                                
   DEXC   =    0.000                                                                                
   RMAX   =    1.529    core radius for proj-oper                                                   
   RAUG   =    1.300    factor for augmentation sphere                                              
   RDEP   =    1.514    radius for radial grids                                                     
   RDEPT  =    1.338    core radius for aug-charge                                                  
                                                                                                    
   Atomic configuration                                                                             
    4 entries                                                                                       
     n  l   j            E        occ.                                                              
     1  0  0.50      -384.7179   2.0000                                                             
     2  0  0.50       -18.5828   2.0000                                                             
     2  1  0.50        -7.0898   3.0000                                                             
     3  2  1.50        -6.8029   0.0000                                                             
   Description                                                                                      
     l       E           TYP  RCUT    TYP  RCUT                                                     
     0    -18.5828119     23  1.200                                                                 
     0    -13.5018863     23  1.200                                                                 
     1     -7.0897853     23  1.500                                                                 
     1      9.5240782     23  1.500                                                                 
     2     -6.8029130      7  1.500                                                                 
  local pseudopotential read in
  partial core-charges read in
  partial kinetic energy density read in
  atomic valenz-charges read in
  non local Contribution for L=            0  read in
    real space projection operators read in
  non local Contribution for L=            0  read in
    real space projection operators read in
  non local Contribution for L=            1  read in
    real space projection operators read in
  non local Contribution for L=            1  read in
    real space projection operators read in
    PAW grid and wavefunctions read in
 
   number of l-projection  operators is LMAX  =            4
   number of lm-projection operators is LMMAX =            8
 
  PAW_PBE Si 05Jan2001                  :
 energy of atom  1       EATOM= -103.0669
 kinetic energy error for atom=    0.0006 (will be added to EATOM!!)
  PAW_PBE N 08Apr2002                   :
 energy of atom  2       EATOM= -264.5486
 kinetic energy error for atom=    0.0138 (will be added to EATOM!!)
 
 
 POSCAR: Si1 N5
  positions in direct lattice
  velocities in cartesian coordinates
 exchange correlation table for  LEXCH =        8
   RHO(1)=    0.500       N(1)  =     2000
   RHO(2)=  100.500       N(2)  =     4000
 


--------------------------------------------------------------------------------------------------------


 ion  position               nearest neighbor table
   1  0.750  0.417  0.168-   3 1.76   2 1.83   4 1.84
   2  0.202  0.457  0.356-   4 1.20   1 1.83
   3  0.816  0.678  0.924-   6 1.22   1 1.76
   4  0.890  0.460  0.356-   2 1.20   1 1.84
   5  0.899  0.802  0.515-   6 1.15
   6  0.858  0.735  0.715-   5 1.15   3 1.22
 
  LATTYP: Found a triclinic cell.
 ALAT       =     3.8776071519
 B/A-ratio  =     2.1826164812
 C/A-ratio  =     1.7919460310
 COS(alpha) =     0.0400184997
 COS(beta)  =     0.5207132280
 COS(gamma) =     0.6068631069
  
  Lattice vectors:
  
 A1 = (  -3.8141597747,  -0.4597589902,  -0.5259696838)
 A2 = (  -5.8819607334,   6.0637630541,  -0.5111340469)
 A3 = (  -2.5498116050,  -2.5846507512,  -5.9244557389)


Analysis of symmetry for initial positions (statically):
=====================================================================
 Subroutine PRICEL returns:
 Original cell was already a primitive cell.
 

 Routine SETGRP: Setting up the symmetry group for a 
 triclinic supercell.


 Subroutine GETGRP returns: Found  1 space group operations
 (whereof  1 operations were pure point group operations)
 out of a pool of  2 trial point group operations.


The static configuration has the point symmetry C_1 .


Analysis of symmetry for dynamics (positions and initial velocities):
=====================================================================
 Subroutine PRICEL returns:
 Original cell was already a primitive cell.
 

 Routine SETGRP: Setting up the symmetry group for a 
 triclinic supercell.


 Subroutine GETGRP returns: Found  1 space group operations
 (whereof  1 operations were pure point group operations)
 out of a pool of  2 trial point group operations.


The dynamic configuration has the point symmetry C_1 .


 Subroutine INISYM returns: Found  1 space group operations
 (whereof  1 operations are pure point group operations),
 and found     1 'primitive' translations


----------------------------------------------------------------------------------------

                                     Primitive cell                                     

  volume of cell :     141.3544

  direct lattice vectors                    reciprocal lattice vectors
     3.814159775  0.459758990  0.525969684     0.282795204 -0.063438236 -0.094035441
     1.746358816  6.983281034  0.540805321    -0.009652150  0.150371669 -0.061448190
     2.549811605  2.584650751  5.924455739    -0.024225309 -0.008094450  0.182749496

  length of vectors
     3.877607152  7.218618532  6.948462746     0.304696901  0.162728863  0.184525781

  position of ions in fractional coordinates (direct lattice)
     0.749715873  0.417372374  0.167713584
     0.201651049  0.456821421  0.355913622
     0.815503601  0.677710114  0.923953949
     0.890205220  0.459978112  0.355547425
     0.899272823  0.802193809  0.514825515
     0.858230434  0.734895171  0.715001905

  ion indices of the primitive-cell ions
   primitive index   ion index
                 1           1
                 2           2
                 3           3
                 4           4
                 5           5
                 6           6

----------------------------------------------------------------------------------------

 
 
 KPOINTS: Automatic mesh                          

Automatic generation of k-mesh.
 Grid dimensions derived from RKLEN:
 generate k-points for:    9    5    6

 Generating k-lattice:

  Cartesian coordinates                     Fractional coordinates (reciprocal lattice)
     0.031421689 -0.007048693 -0.010448382     0.111111111 -0.000000000  0.000000000
    -0.001930430  0.030074334 -0.012289638     0.000000000  0.200000000 -0.000000000
    -0.004037551 -0.001349075  0.030458249     0.000000000 -0.000000000  0.166666667

  Length of vectors
     0.033855211  0.032545773  0.030754297

  Shift w.r.t. Gamma in fractional coordinates (k-lattice)
     0.000000000  0.000000000  0.000000000

 TETIRR: Found    808 inequivalent tetrahedra from     1620
 
 Subroutine IBZKPT returns following result:
 ===========================================
 
 Found    136 irreducible k-points:
 
 Following reciprocal coordinates:
            Coordinates               Weight
  0.000000  0.000000  0.000000      1.000000
  0.111111  0.000000  0.000000      2.000000
  0.222222  0.000000  0.000000      2.000000
  0.333333  0.000000  0.000000      2.000000
  0.444444  0.000000  0.000000      2.000000
  0.000000  0.200000  0.000000      2.000000
  0.111111  0.200000  0.000000      2.000000
  0.222222  0.200000  0.000000      2.000000
  0.333333  0.200000  0.000000      2.000000
  0.444444  0.200000  0.000000      2.000000
 -0.444444  0.200000  0.000000      2.000000
 -0.333333  0.200000  0.000000      2.000000
 -0.222222  0.200000  0.000000      2.000000
 -0.111111  0.200000  0.000000      2.000000
  0.000000  0.400000  0.000000      2.000000
  0.111111  0.400000  0.000000      2.000000
  0.222222  0.400000  0.000000      2.000000
  0.333333  0.400000  0.000000      2.000000
  0.444444  0.400000  0.000000      2.000000
 -0.444444  0.400000  0.000000      2.000000
 -0.333333  0.400000  0.000000      2.000000
 -0.222222  0.400000  0.000000      2.000000
 -0.111111  0.400000  0.000000      2.000000
  0.000000  0.000000  0.166667      2.000000
  0.111111  0.000000  0.166667      2.000000
  0.222222  0.000000  0.166667      2.000000
  0.333333  0.000000  0.166667      2.000000
  0.444444  0.000000  0.166667      2.000000
 -0.444444  0.000000  0.166667      2.000000
 -0.333333  0.000000  0.166667      2.000000
 -0.222222  0.000000  0.166667      2.000000
 -0.111111  0.000000  0.166667      2.000000
  0.000000  0.200000  0.166667      2.000000
  0.111111  0.200000  0.166667      2.000000
  0.222222  0.200000  0.166667      2.000000
  0.333333  0.200000  0.166667      2.000000
  0.444444  0.200000  0.166667      2.000000
 -0.444444  0.200000  0.166667      2.000000
 -0.333333  0.200000  0.166667      2.000000
 -0.222222  0.200000  0.166667      2.000000
 -0.111111  0.200000  0.166667      2.000000
  0.000000  0.400000  0.166667      2.000000
  0.111111  0.400000  0.166667      2.000000
  0.222222  0.400000  0.166667      2.000000
  0.333333  0.400000  0.166667      2.000000
  0.444444  0.400000  0.166667      2.000000
 -0.444444  0.400000  0.166667      2.000000
 -0.333333  0.400000  0.166667      2.000000
 -0.222222  0.400000  0.166667      2.000000
 -0.111111  0.400000  0.166667      2.000000
  0.000000 -0.400000  0.166667      2.000000
  0.111111 -0.400000  0.166667      2.000000
  0.222222 -0.400000  0.166667      2.000000
  0.333333 -0.400000  0.166667      2.000000
  0.444444 -0.400000  0.166667      2.000000
 -0.444444 -0.400000  0.166667      2.000000
 -0.333333 -0.400000  0.166667      2.000000
 -0.222222 -0.400000  0.166667      2.000000
 -0.111111 -0.400000  0.166667      2.000000
  0.000000 -0.200000  0.166667      2.000000
  0.111111 -0.200000  0.166667      2.000000
  0.222222 -0.200000  0.166667      2.000000
  0.333333 -0.200000  0.166667      2.000000
  0.444444 -0.200000  0.166667      2.000000
 -0.444444 -0.200000  0.166667      2.000000
 -0.333333 -0.200000  0.166667      2.000000
 -0.222222 -0.200000  0.166667      2.000000
 -0.111111 -0.200000  0.166667      2.000000
  0.000000  0.000000  0.333333      2.000000
  0.111111  0.000000  0.333333      2.000000
  0.222222  0.000000  0.333333      2.000000
  0.333333  0.000000  0.333333      2.000000
  0.444444  0.000000  0.333333      2.000000
 -0.444444  0.000000  0.333333      2.000000
 -0.333333  0.000000  0.333333      2.000000
 -0.222222  0.000000  0.333333      2.000000
 -0.111111  0.000000  0.333333      2.000000
  0.000000  0.200000  0.333333      2.000000
  0.111111  0.200000  0.333333      2.000000
  0.222222  0.200000  0.333333      2.000000
  0.333333  0.200000  0.333333      2.000000
  0.444444  0.200000  0.333333      2.000000
 -0.444444  0.200000  0.333333      2.000000
 -0.333333  0.200000  0.333333      2.000000
 -0.222222  0.200000  0.333333      2.000000
 -0.111111  0.200000  0.333333      2.000000
  0.000000  0.400000  0.333333      2.000000
  0.111111  0.400000  0.333333      2.000000
  0.222222  0.400000  0.333333      2.000000
  0.333333  0.400000  0.333333      2.000000
  0.444444  0.400000  0.333333      2.000000
 -0.444444  0.400000  0.333333      2.000000
 -0.333333  0.400000  0.333333      2.000000
 -0.222222  0.400000  0.333333      2.000000
 -0.111111  0.400000  0.333333      2.000000
  0.000000 -0.400000  0.333333      2.000000
  0.111111 -0.400000  0.333333      2.000000
  0.222222 -0.400000  0.333333      2.000000
  0.333333 -0.400000  0.333333      2.000000
  0.444444 -0.400000  0.333333      2.000000
 -0.444444 -0.400000  0.333333      2.000000
 -0.333333 -0.400000  0.333333      2.000000
 -0.222222 -0.400000  0.333333      2.000000
 -0.111111 -0.400000  0.333333      2.000000
  0.000000 -0.200000  0.333333      2.000000
  0.111111 -0.200000  0.333333      2.000000
  0.222222 -0.200000  0.333333      2.000000
  0.333333 -0.200000  0.333333      2.000000
  0.444444 -0.200000  0.333333      2.000000
 -0.444444 -0.200000  0.333333      2.000000
 -0.333333 -0.200000  0.333333      2.000000
 -0.222222 -0.200000  0.333333      2.000000
 -0.111111 -0.200000  0.333333      2.000000
  0.000000  0.000000  0.500000      1.000000
  0.111111  0.000000  0.500000      2.000000
  0.222222  0.000000  0.500000      2.000000
  0.333333  0.000000  0.500000      2.000000
  0.444444  0.000000  0.500000      2.000000
  0.000000  0.200000  0.500000      2.000000
  0.111111  0.200000  0.500000      2.000000
  0.222222  0.200000  0.500000      2.000000
  0.333333  0.200000  0.500000      2.000000
  0.444444  0.200000  0.500000      2.000000
 -0.444444  0.200000  0.500000      2.000000
 -0.333333  0.200000  0.500000      2.000000
 -0.222222  0.200000  0.500000      2.000000
 -0.111111  0.200000  0.500000      2.000000
  0.000000  0.400000  0.500000      2.000000
  0.111111  0.400000  0.500000      2.000000
  0.222222  0.400000  0.500000      2.000000
  0.333333  0.400000  0.500000      2.000000
  0.444444  0.400000  0.500000      2.000000
 -0.444444  0.400000  0.500000      2.000000
 -0.333333  0.400000  0.500000      2.000000
 -0.222222  0.400000  0.500000      2.000000
 -0.111111  0.400000  0.500000      2.000000
 
 Following cartesian coordinates:
            Coordinates               Weight
  0.000000  0.000000  0.000000      1.000000
  0.031422 -0.007049 -0.010448      2.000000
  0.062843 -0.014097 -0.020897      2.000000
  0.094265 -0.021146 -0.031345      2.000000
  0.125687 -0.028195 -0.041794      2.000000
 -0.001930  0.030074 -0.012290      2.000000
  0.029491  0.023026 -0.022738      2.000000
  0.060913  0.015977 -0.033186      2.000000
  0.092335  0.008928 -0.043635      2.000000
  0.123756  0.001880 -0.054083      2.000000
 -0.127617  0.058269  0.029504      2.000000
 -0.096195  0.051220  0.019056      2.000000
 -0.064774  0.044172  0.008607      2.000000
 -0.033352  0.037123 -0.001841      2.000000
 -0.003861  0.060149 -0.024579      2.000000
  0.027561  0.053100 -0.035028      2.000000
  0.058983  0.046051 -0.045476      2.000000
  0.090404  0.039003 -0.055924      2.000000
  0.121826  0.031954 -0.066373      2.000000
 -0.129548  0.088343  0.017214      2.000000
 -0.098126  0.081295  0.006766      2.000000
 -0.066704  0.074246 -0.003683      2.000000
 -0.035283  0.067197 -0.014131      2.000000
 -0.004038 -0.001349  0.030458      2.000000
  0.027384 -0.008398  0.020010      2.000000
  0.058806 -0.015446  0.009561      2.000000
  0.090228 -0.022495 -0.000887      2.000000
  0.121649 -0.029544 -0.011335      2.000000
 -0.129724  0.026846  0.072252      2.000000
 -0.098303  0.019797  0.061803      2.000000
 -0.066881  0.012748  0.051355      2.000000
 -0.035459  0.005700  0.040907      2.000000
 -0.005968  0.028725  0.018169      2.000000
  0.025454  0.021677  0.007720      2.000000
  0.056875  0.014628 -0.002728      2.000000
  0.088297  0.007579 -0.013177      2.000000
  0.119719  0.000530 -0.023625      2.000000
 -0.131655  0.056920  0.059962      2.000000
 -0.100233  0.049871  0.049514      2.000000
 -0.068811  0.042823  0.039065      2.000000
 -0.037390  0.035774  0.028617      2.000000
 -0.007898  0.058800  0.005879      2.000000
  0.023523  0.051751 -0.004569      2.000000
  0.054945  0.044702 -0.015018      2.000000
  0.086367  0.037654 -0.025466      2.000000
  0.117788  0.030605 -0.035915      2.000000
 -0.133585  0.086994  0.047673      2.000000
 -0.102163  0.079946  0.037224      2.000000
 -0.070742  0.072897  0.026776      2.000000
 -0.039320  0.065848  0.016327      2.000000
 -0.000177 -0.061498  0.055038      2.000000
  0.031245 -0.068546  0.044589      2.000000
  0.062667 -0.075595  0.034141      2.000000
  0.094088 -0.082644  0.023692      2.000000
  0.125510 -0.089693  0.013244      2.000000
 -0.125863 -0.033303  0.096831      2.000000
 -0.094442 -0.040352  0.086383      2.000000
 -0.063020 -0.047400  0.075934      2.000000
 -0.031598 -0.054449  0.065486      2.000000
 -0.002107 -0.031423  0.042748      2.000000
  0.029315 -0.038472  0.032300      2.000000
  0.060736 -0.045521  0.021851      2.000000
  0.092158 -0.052569  0.011403      2.000000
  0.123580 -0.059618  0.000954      2.000000
 -0.127794 -0.003229  0.084541      2.000000
 -0.096372 -0.010277  0.074093      2.000000
 -0.064951 -0.017326  0.063645      2.000000
 -0.033529 -0.024375  0.053196      2.000000
 -0.008075 -0.002698  0.060916      2.000000
  0.023347 -0.009747  0.050468      2.000000
  0.054768 -0.016796  0.040020      2.000000
  0.086190 -0.023844  0.029571      2.000000
  0.117612 -0.030893  0.019123      2.000000
 -0.133762  0.025497  0.102710      2.000000
 -0.102340  0.018448  0.092262      2.000000
 -0.070918  0.011399  0.081813      2.000000
 -0.039497  0.004351  0.071365      2.000000
 -0.010006  0.027376  0.048627      2.000000
  0.021416  0.020327  0.038178      2.000000
  0.052838  0.013279  0.027730      2.000000
  0.084260  0.006230  0.017282      2.000000
  0.115681 -0.000819  0.006833      2.000000
 -0.135692  0.055571  0.090420      2.000000
 -0.104271  0.048522  0.079972      2.000000
 -0.072849  0.041474  0.069524      2.000000
 -0.041427  0.034425  0.059075      2.000000
 -0.011936  0.057451  0.036337      2.000000
  0.019486  0.050402  0.025889      2.000000
  0.050907  0.043353  0.015440      2.000000
  0.082329  0.036304  0.004992      2.000000
  0.113751  0.029256 -0.005456      2.000000
 -0.137623  0.085645  0.078131      2.000000
 -0.106201  0.078597  0.067682      2.000000
 -0.074779  0.071548  0.057234      2.000000
 -0.043358  0.064499  0.046786      2.000000
 -0.004214 -0.062847  0.085496      2.000000
  0.027207 -0.069896  0.075047      2.000000
  0.058629 -0.076944  0.064599      2.000000
  0.090051 -0.083993  0.054151      2.000000
  0.121473 -0.091042  0.043702      2.000000
 -0.129901 -0.034652  0.127289      2.000000
 -0.098479 -0.041701  0.116841      2.000000
 -0.067058 -0.048749  0.106393      2.000000
 -0.035636 -0.055798  0.095944      2.000000
 -0.006145 -0.032772  0.073206      2.000000
  0.025277 -0.039821  0.062758      2.000000
  0.056699 -0.046870  0.052309      2.000000
  0.088120 -0.053919  0.041861      2.000000
  0.119542 -0.060967  0.031413      2.000000
 -0.131831 -0.004578  0.115000      2.000000
 -0.100410 -0.011626  0.104551      2.000000
 -0.068988 -0.018675  0.094103      2.000000
 -0.037566 -0.025724  0.083655      2.000000
 -0.012113 -0.004047  0.091375      1.000000
  0.019309 -0.011096  0.080926      2.000000
  0.050731 -0.018145  0.070478      2.000000
  0.082152 -0.025193  0.060030      2.000000
  0.113574 -0.032242  0.049581      2.000000
 -0.014043  0.026027  0.079085      2.000000
  0.017379  0.018978  0.068637      2.000000
  0.048800  0.011930  0.058188      2.000000
  0.080222  0.004881  0.047740      2.000000
  0.111644 -0.002168  0.037292      2.000000
 -0.139730  0.054222  0.120879      2.000000
 -0.108308  0.047173  0.110430      2.000000
 -0.076886  0.040124  0.099982      2.000000
 -0.045465  0.033076  0.089533      2.000000
 -0.015974  0.056101  0.066795      2.000000
  0.015448  0.049053  0.056347      2.000000
  0.046870  0.042004  0.045899      2.000000
  0.078292  0.034955  0.035450      2.000000
  0.109713  0.027907  0.025002      2.000000
 -0.141660  0.084296  0.108589      2.000000
 -0.110239  0.077248  0.098141      2.000000
 -0.078817  0.070199  0.087692      2.000000
 -0.047395  0.063150  0.077244      2.000000
 


--------------------------------------------------------------------------------------------------------




 Dimension of arrays:
   k-points           NKPTS =    136   k-points in BZ     NKDIM =    136   number of bands    NBANDS=     18
   number of dos      NEDOS =    301   number of ions     NIONS =      6
   non local maximal  LDIM  =      4   non local SUM 2l+1 LMDIM =      8
   total plane-waves  NPLWV =  38400
   max r-space proj   IRMAX =      1   max aug-charges    IRDMAX=   9281
   dimension x,y,z NGX =    24 NGY =   40 NGZ =   40
   dimension x,y,z NGXF=    48 NGYF=   80 NGZF=   80
   support grid    NGXF=    48 NGYF=   80 NGZF=   80
   ions per type =               1   5
   NGX,Y,Z   is equivalent  to a cutoff of  10.29,  9.21,  9.57 a.u.
   NGXF,Y,Z  is equivalent  to a cutoff of  20.58, 18.42, 19.14 a.u.

 SYSTEM =  unknown system                          
 POSCAR =  Si1 N5                                  

 Startparameter for this run:
   NWRITE =      2    write-flag & timer
   PREC   = normal    normal or accurate (medium, high low for compatibility)
   ISTART =      0    job   : 0-new  1-cont  2-samecut
   ICHARG =      2    charge: 1-file 2-atom 10-const
   ISPIN  =      1    spin polarized calculation?
   LNONCOLLINEAR =      F non collinear calculations
   LSORBIT =      F    spin-orbit coupling
   INIWAV =      1    electr: 0-lowe 1-rand  2-diag
   LASPH  =      F    aspherical Exc in radial PAW
   METAGGA=      F    non-selfconsistent MetaGGA calc.

 Electronic Relaxation 1
   ENCUT  =  500.0 eV  36.75 Ry    6.06 a.u.   7.07 13.16 12.67*2*pi/ulx,y,z
   ENINI  =  500.0     initial cutoff
   ENAUG  =  627.1 eV  augmentation charge cutoff
   NELM   =     60;   NELMIN=  2; NELMDL= -5     # of ELM steps 
   EDIFF  = 0.1E-03   stopping-criterion for ELM
   LREAL  =      F    real-space projection
   NLSPLINE    = F    spline interpolate recip. space projectors
   LCOMPAT=      F    compatible to vasp.4.4
   GGA_COMPAT  = T    GGA compatible to vasp.4.4-vasp.4.6
   LMAXPAW     = -100 max onsite density
   LMAXMIX     =    2 max onsite mixed and CHGCAR
   VOSKOWN=      0    Vosko Wilk Nusair interpolation
   ROPT   =    0.00000   0.00000
 Ionic relaxation
   EDIFFG = 0.1E-02   stopping-criterion for IOM
   NSW    =    100    number of steps for IOM
   NBLOCK =      1;   KBLOCK =    100    inner block; outer block 
   IBRION =      2    ionic relax: 0-MD 1-quasi-New 2-CG
   NFREE  =      1    steps in history (QN), initial steepest desc. (CG)
   ISIF   =      3    stress and relaxation
   IWAVPR =     11    prediction:  0-non 1-charg 2-wave 3-comb
   ISYM   =      2    0-nonsym 1-usesym 2-fastsym
   LCORR  =      T    Harris-Foulkes like correction to forces

   POTIM  = 0.5000    time-step for ionic-motion
   TEIN   =    0.0    initial temperature
   TEBEG  =    0.0;   TEEND  =   0.0 temperature during run
   SMASS  =  -3.00    Nose mass-parameter (am)
   estimated Nose-frequenzy (Omega)   =  0.10E-29 period in steps = 0.13E+47 mass=  -0.344E-27a.u.
   SCALEE = 1.0000    scale energy and forces
   NPACO  =    256;   APACO  = 16.0  distance and # of slots for P.C.
   PSTRESS=    0.0 pullay stress

  Mass of Ions in am
   POMASS =  28.09 14.00
  Ionic Valenz
   ZVAL   =   4.00  5.00
  Atomic Wigner-Seitz radii
   RWIGS  =  -1.00 -1.00
  virtual crystal weights 
   VCA    =   1.00  1.00
   NELECT =      29.0000    total number of electrons
   NUPDOWN=      -1.0000    fix difference up-down

 DOS related values:
   EMIN   =  10.00;   EMAX   =-10.00  energy-range for DOS
   EFERMI =   0.00
   ISMEAR =    -5;   SIGMA  =   0.20  broadening in eV -4-tet -1-fermi 0-gaus

 Electronic relaxation 2 (details)
   IALGO  =     68    algorithm
   LDIAG  =      T    sub-space diagonalisation (order eigenvalues)
   LSUBROT=      F    optimize rotation matrix (better conditioning)
   TURBO    =      0    0=normal 1=particle mesh
   IRESTART =      0    0=no restart 2=restart with 2 vectors
   NREBOOT  =      0    no. of reboots
   NMIN     =      0    reboot dimension
   EREF     =   0.00    reference energy to select bands
   IMIX   =      4    mixing-type and parameters
     AMIX     =   0.40;   BMIX     =  1.00
     AMIX_MAG =   1.60;   BMIX_MAG =  1.00
     AMIN     =   0.10
     WC   =   100.;   INIMIX=   1;  MIXPRE=   1;  MAXMIX= -45

 Intra band minimization:
   WEIMIN = 0.0010     energy-eigenvalue tresh-hold
   EBREAK =  0.14E-05  absolut break condition
   DEPER  =   0.30     relativ break condition  

   TIME   =   0.40     timestep for ELM

  volume/ion in A,a.u.               =      23.56       158.98
  Fermi-wavevector in a.u.,A,eV,Ry     =   0.965542  1.824609 12.684315  0.932271
  Thomas-Fermi vector in A             =   2.095267
 
 Write flags
   LWAVE        =      F    write WAVECAR
   LDOWNSAMPLE  =      F    k-point downsampling of WAVECAR
   LCHARG       =      F    write CHGCAR
   LVTOT        =      F    write LOCPOT, total local potential
   LVHAR        =      F    write LOCPOT, Hartree potential only
   LELF         =      F    write electronic localiz. function (ELF)
   LORBIT       =      0    0 simple, 1 ext, 2 COOP (PROOUT), +10 PAW based schemes


 Dipole corrections
   LMONO  =      F    monopole corrections only (constant potential shift)
   LDIPOL =      F    correct potential (dipole corrections)
   IDIPOL =      0    1-x, 2-y, 3-z, 4-all directions 
   EPSILON=  1.0000000 bulk dielectric constant

 Exchange correlation treatment:
   GGA     =    --    GGA type
   LEXCH   =     8    internal setting for exchange type
   VOSKOWN=      0    Vosko Wilk Nusair interpolation
   LHFCALC =     F    Hartree Fock is set to
   LHFONE  =     F    Hartree Fock one center treatment
   AEXX    =    0.0000 exact exchange contribution

 Linear response parameters
   LEPSILON=     F    determine dielectric tensor
   LRPA    =     F    only Hartree local field effects (RPA)
   LNABLA  =     F    use nabla operator in PAW spheres
   LVEL    =     F    velocity operator in full k-point grid
   LINTERFAST=   F  fast interpolation
   KINTER  =     0    interpolate to denser k-point grid
   CSHIFT  =0.1000    complex shift for real part using Kramers Kronig
   OMEGAMAX=  -1.0    maximum frequency
   DEG_THRESHOLD= 0.2000000E-02 threshold for treating states as degnerate
   RTIME   =   -0.100 relaxation time in fs
  (WPLASMAI=    0.000 imaginary part of plasma frequency in eV, 0.658/RTIME)
   DFIELD  = 0.0000000 0.0000000 0.0000000 field for delta impulse in time
 
 Orbital magnetization related:
   ORBITALMAG=     F  switch on orbital magnetization
   LCHIMAG   =     F  perturbation theory with respect to B field
   DQ        =  0.001000  dq finite difference perturbation B field
   LLRAUG    =     F  two centre corrections for induced B field



--------------------------------------------------------------------------------------------------------


 conjugate gradient relaxation of ions
 charge density and potential will be updated during run
 non-spin polarized calculation
 RMM-DIIS sequential band-by-band and
  variant of blocked Davidson during initial phase
 perform sub-space diagonalisation
    before iterative eigenvector-optimisation
 modified Broyden-mixing scheme, WC =      100.0
 initial mixing is a Kerker type mixing with AMIX =  0.4000 and BMIX =      1.0000
 Hartree-type preconditioning will be used
 using additional bands             3
 reciprocal scheme for non local part
 use partial core corrections
 calculate Harris-corrections to forces 
   (improved forces if not selfconsistent)
 use gradient corrections 
 use of overlap-Matrix (Vanderbilt PP)
 Fermi weights with tetrahedron method with Bloechl corrections


--------------------------------------------------------------------------------------------------------


  energy-cutoff  :      500.00
  volume of cell :      141.35
      direct lattice vectors                 reciprocal lattice vectors
     3.814159775  0.459758990  0.525969684     0.282795204 -0.063438236 -0.094035441
     1.746358816  6.983281034  0.540805321    -0.009652150  0.150371669 -0.061448190
     2.549811605  2.584650751  5.924455739    -0.024225309 -0.008094450  0.182749496

  length of vectors
     3.877607152  7.218618532  6.948462746     0.304696901  0.162728863  0.184525781


 
 k-points in units of 2pi/SCALE and weight: Automatic mesh                          
   0.00000000  0.00000000  0.00000000       0.004
   0.03142169 -0.00704869 -0.01044838       0.007
   0.06284338 -0.01409739 -0.02089676       0.007
   0.09426507 -0.02114608 -0.03134515       0.007
   0.12568676 -0.02819477 -0.04179353       0.007
  -0.00193043  0.03007433 -0.01228964       0.007
   0.02949126  0.02302564 -0.02273802       0.007
   0.06091295  0.01597695 -0.03318640       0.007
   0.09233464  0.00892826 -0.04363479       0.007
   0.12375633  0.00187956 -0.05408317       0.007
  -0.12761719  0.05826911  0.02950389       0.007
  -0.09619550  0.05122041  0.01905551       0.007
  -0.06477381  0.04417172  0.00860713       0.007
  -0.03335212  0.03712303 -0.00184126       0.007
  -0.00386086  0.06014867 -0.02457928       0.007
   0.02756083  0.05309997 -0.03502766       0.007
   0.05898252  0.04605128 -0.04547604       0.007
   0.09040421  0.03900259 -0.05592442       0.007
   0.12182590  0.03195390 -0.06637281       0.007
  -0.12954762  0.08834344  0.01721425       0.007
  -0.09812593  0.08129475  0.00676587       0.007
  -0.06670424  0.07424605 -0.00368251       0.007
  -0.03528255  0.06719736 -0.01413089       0.007
  -0.00403755 -0.00134907  0.03045825       0.007
   0.02738414 -0.00839777  0.02000987       0.007
   0.05880583 -0.01544646  0.00956148       0.007
   0.09022752 -0.02249515 -0.00088690       0.007
   0.12164921 -0.02954385 -0.01133528       0.007
  -0.12972431  0.02684570  0.07225178       0.007
  -0.09830262  0.01979700  0.06180340       0.007
  -0.06688093  0.01274831  0.05135501       0.007
  -0.03545924  0.00569962  0.04090663       0.007
  -0.00596798  0.02872526  0.01816861       0.007
   0.02545371  0.02167657  0.00772023       0.007
   0.05687540  0.01462787 -0.00272815       0.007
   0.08829709  0.00757918 -0.01317654       0.007
   0.11971878  0.00053049 -0.02362492       0.007
  -0.13165474  0.05692003  0.05996214       0.007
  -0.10023305  0.04987134  0.04951376       0.007
  -0.06881136  0.04282264  0.03906538       0.007
  -0.03738967  0.03577395  0.02861699       0.007
  -0.00789841  0.05879959  0.00587897       0.007
   0.02352328  0.05175090 -0.00456941       0.007
   0.05494497  0.04470221 -0.01501779       0.007
   0.08636666  0.03765351 -0.02546617       0.007
   0.11778835  0.03060482 -0.03591456       0.007
  -0.13358517  0.08699436  0.04767250       0.007
  -0.10216348  0.07994567  0.03722412       0.007
  -0.07074179  0.07289698  0.02677574       0.007
  -0.03932010  0.06584829  0.01632736       0.007
  -0.00017669 -0.06149774  0.05503753       0.007
   0.03124500 -0.06854644  0.04458914       0.007
   0.06266669 -0.07559513  0.03414076       0.007
   0.09408838 -0.08264382  0.02369238       0.007
   0.12551007 -0.08969251  0.01324400       0.007
  -0.12586345 -0.03330297  0.09683105       0.007
  -0.09444176 -0.04035166  0.08638267       0.007
  -0.06302007 -0.04740036  0.07593429       0.007
  -0.03159838 -0.05444905  0.06548591       0.007
  -0.00210712 -0.03142341  0.04274789       0.007
   0.02931457 -0.03847210  0.03229951       0.007
   0.06073626 -0.04552079  0.02185112       0.007
   0.09215795 -0.05256949  0.01140274       0.007
   0.12357964 -0.05961818  0.00095436       0.007
  -0.12779388 -0.00322864  0.08454142       0.007
  -0.09637219 -0.01027733  0.07409303       0.007
  -0.06495050 -0.01732602  0.06364465       0.007
  -0.03352881 -0.02437472  0.05319627       0.007
  -0.00807510 -0.00269815  0.06091650       0.007
   0.02334659 -0.00974684  0.05046812       0.007
   0.05476828 -0.01679554  0.04001973       0.007
   0.08618996 -0.02384423  0.02957135       0.007
   0.11761165 -0.03089292  0.01912297       0.007
  -0.13376186  0.02549662  0.10271003       0.007
  -0.10234017  0.01844793  0.09226165       0.007
  -0.07091848  0.01139924  0.08181326       0.007
  -0.03949679  0.00435054  0.07136488       0.007
  -0.01000553  0.02737618  0.04862686       0.007
   0.02141616  0.02032749  0.03817848       0.007
   0.05283785  0.01327880  0.02773010       0.007
   0.08425954  0.00623011  0.01728171       0.007
   0.11568122 -0.00081859  0.00683333       0.007
  -0.13569229  0.05557096  0.09042039       0.007
  -0.10427060  0.04852226  0.07997201       0.007
  -0.07284891  0.04147357  0.06952363       0.007
  -0.04142722  0.03442488  0.05907524       0.007
  -0.01193596  0.05745052  0.03633722       0.007
   0.01948573  0.05040182  0.02588884       0.007
   0.05090742  0.04335313  0.01544046       0.007
   0.08232911  0.03630444  0.00499208       0.007
   0.11375079  0.02925575 -0.00545631       0.007
  -0.13762272  0.08564529  0.07813075       0.007
  -0.10620103  0.07859660  0.06768237       0.007
  -0.07477934  0.07154790  0.05723399       0.007
  -0.04335765  0.06449921  0.04678560       0.007
  -0.00421424 -0.06284682  0.08549577       0.007
   0.02720745 -0.06989551  0.07504739       0.007
   0.05862914 -0.07694420  0.06459901       0.007
   0.09005082 -0.08399290  0.05415063       0.007
   0.12147251 -0.09104159  0.04370225       0.007
  -0.12990100 -0.03465205  0.12728930       0.007
  -0.09847931 -0.04170074  0.11684092       0.007
  -0.06705762 -0.04874943  0.10639254       0.007
  -0.03563593 -0.05579812  0.09594416       0.007
  -0.00614467 -0.03277248  0.07320614       0.007
   0.02527702 -0.03982118  0.06275775       0.007
   0.05669871 -0.04686987  0.05230937       0.007
   0.08812039 -0.05391856  0.04186099       0.007
   0.11954208 -0.06096726  0.03141261       0.007
  -0.13183143 -0.00457771  0.11499967       0.007
  -0.10040974 -0.01162641  0.10455128       0.007
  -0.06898805 -0.01867510  0.09410290       0.007
  -0.03756636 -0.02572379  0.08365452       0.007
  -0.01211265 -0.00404722  0.09137475       0.004
   0.01930903 -0.01109592  0.08092637       0.007
   0.05073072 -0.01814461  0.07047798       0.007
   0.08215241 -0.02519330  0.06002960       0.007
   0.11357410 -0.03224200  0.04958122       0.007
  -0.01404308  0.02602711  0.07908511       0.007
   0.01737860  0.01897842  0.06863673       0.007
   0.04880029  0.01192972  0.05818835       0.007
   0.08022198  0.00488103  0.04773996       0.007
   0.11164367 -0.00216766  0.03729158       0.007
  -0.13972984  0.05422188  0.12087864       0.007
  -0.10830815  0.04717319  0.11043026       0.007
  -0.07688646  0.04012449  0.09998187       0.007
  -0.04546477  0.03307580  0.08953349       0.007
  -0.01597351  0.05610144  0.06679547       0.007
   0.01544817  0.04905275  0.05634709       0.007
   0.04686986  0.04200406  0.04589871       0.007
   0.07829155  0.03495536  0.03545032       0.007
   0.10971324  0.02790667  0.02500194       0.007
  -0.14166027  0.08429621  0.10858900       0.007
  -0.11023858  0.07724752  0.09814062       0.007
  -0.07881689  0.07019883  0.08769224       0.007
  -0.04739520  0.06315014  0.07724385       0.007
 
 k-points in reciprocal lattice and weights: Automatic mesh                          
   0.00000000  0.00000000  0.00000000       0.004
   0.11111111  0.00000000  0.00000000       0.007
   0.22222222  0.00000000  0.00000000       0.007
   0.33333333  0.00000000  0.00000000       0.007
   0.44444444  0.00000000  0.00000000       0.007
   0.00000000  0.20000000  0.00000000       0.007
   0.11111111  0.20000000  0.00000000       0.007
   0.22222222  0.20000000  0.00000000       0.007
   0.33333333  0.20000000  0.00000000       0.007
   0.44444444  0.20000000  0.00000000       0.007
  -0.44444444  0.20000000  0.00000000       0.007
  -0.33333333  0.20000000  0.00000000       0.007
  -0.22222222  0.20000000  0.00000000       0.007
  -0.11111111  0.20000000  0.00000000       0.007
   0.00000000  0.40000000  0.00000000       0.007
   0.11111111  0.40000000  0.00000000       0.007
   0.22222222  0.40000000  0.00000000       0.007
   0.33333333  0.40000000  0.00000000       0.007
   0.44444444  0.40000000  0.00000000       0.007
  -0.44444444  0.40000000  0.00000000       0.007
  -0.33333333  0.40000000  0.00000000       0.007
  -0.22222222  0.40000000  0.00000000       0.007
  -0.11111111  0.40000000  0.00000000       0.007
   0.00000000  0.00000000  0.16666667       0.007
   0.11111111  0.00000000  0.16666667       0.007
   0.22222222  0.00000000  0.16666667       0.007
   0.33333333  0.00000000  0.16666667       0.007
   0.44444444  0.00000000  0.16666667       0.007
  -0.44444444  0.00000000  0.16666667       0.007
  -0.33333333  0.00000000  0.16666667       0.007
  -0.22222222  0.00000000  0.16666667       0.007
  -0.11111111  0.00000000  0.16666667       0.007
   0.00000000  0.20000000  0.16666667       0.007
   0.11111111  0.20000000  0.16666667       0.007
   0.22222222  0.20000000  0.16666667       0.007
   0.33333333  0.20000000  0.16666667       0.007
   0.44444444  0.20000000  0.16666667       0.007
  -0.44444444  0.20000000  0.16666667       0.007
  -0.33333333  0.20000000  0.16666667       0.007
  -0.22222222  0.20000000  0.16666667       0.007
  -0.11111111  0.20000000  0.16666667       0.007
   0.00000000  0.40000000  0.16666667       0.007
   0.11111111  0.40000000  0.16666667       0.007
   0.22222222  0.40000000  0.16666667       0.007
   0.33333333  0.40000000  0.16666667       0.007
   0.44444444  0.40000000  0.16666667       0.007
  -0.44444444  0.40000000  0.16666667       0.007
  -0.33333333  0.40000000  0.16666667       0.007
  -0.22222222  0.40000000  0.16666667       0.007
  -0.11111111  0.40000000  0.16666667       0.007
   0.00000000 -0.40000000  0.16666667       0.007
   0.11111111 -0.40000000  0.16666667       0.007
   0.22222222 -0.40000000  0.16666667       0.007
   0.33333333 -0.40000000  0.16666667       0.007
   0.44444444 -0.40000000  0.16666667       0.007
  -0.44444444 -0.40000000  0.16666667       0.007
  -0.33333333 -0.40000000  0.16666667       0.007
  -0.22222222 -0.40000000  0.16666667       0.007
  -0.11111111 -0.40000000  0.16666667       0.007
   0.00000000 -0.20000000  0.16666667       0.007
   0.11111111 -0.20000000  0.16666667       0.007
   0.22222222 -0.20000000  0.16666667       0.007
   0.33333333 -0.20000000  0.16666667       0.007
   0.44444444 -0.20000000  0.16666667       0.007
  -0.44444444 -0.20000000  0.16666667       0.007
  -0.33333333 -0.20000000  0.16666667       0.007
  -0.22222222 -0.20000000  0.16666667       0.007
  -0.11111111 -0.20000000  0.16666667       0.007
   0.00000000  0.00000000  0.33333333       0.007
   0.11111111  0.00000000  0.33333333       0.007
   0.22222222  0.00000000  0.33333333       0.007
   0.33333333  0.00000000  0.33333333       0.007
   0.44444444  0.00000000  0.33333333       0.007
  -0.44444444  0.00000000  0.33333333       0.007
  -0.33333333  0.00000000  0.33333333       0.007
  -0.22222222  0.00000000  0.33333333       0.007
  -0.11111111  0.00000000  0.33333333       0.007
   0.00000000  0.20000000  0.33333333       0.007
   0.11111111  0.20000000  0.33333333       0.007
   0.22222222  0.20000000  0.33333333       0.007
   0.33333333  0.20000000  0.33333333       0.007
   0.44444444  0.20000000  0.33333333       0.007
  -0.44444444  0.20000000  0.33333333       0.007
  -0.33333333  0.20000000  0.33333333       0.007
  -0.22222222  0.20000000  0.33333333       0.007
  -0.11111111  0.20000000  0.33333333       0.007
   0.00000000  0.40000000  0.33333333       0.007
   0.11111111  0.40000000  0.33333333       0.007
   0.22222222  0.40000000  0.33333333       0.007
   0.33333333  0.40000000  0.33333333       0.007
   0.44444444  0.40000000  0.33333333       0.007
  -0.44444444  0.40000000  0.33333333       0.007
  -0.33333333  0.40000000  0.33333333       0.007
  -0.22222222  0.40000000  0.33333333       0.007
  -0.11111111  0.40000000  0.33333333       0.007
   0.00000000 -0.40000000  0.33333333       0.007
   0.11111111 -0.40000000  0.33333333       0.007
   0.22222222 -0.40000000  0.33333333       0.007
   0.33333333 -0.40000000  0.33333333       0.007
   0.44444444 -0.40000000  0.33333333       0.007
  -0.44444444 -0.40000000  0.33333333       0.007
  -0.33333333 -0.40000000  0.33333333       0.007
  -0.22222222 -0.40000000  0.33333333       0.007
  -0.11111111 -0.40000000  0.33333333       0.007
   0.00000000 -0.20000000  0.33333333       0.007
   0.11111111 -0.20000000  0.33333333       0.007
   0.22222222 -0.20000000  0.33333333       0.007
   0.33333333 -0.20000000  0.33333333       0.007
   0.44444444 -0.20000000  0.33333333       0.007
  -0.44444444 -0.20000000  0.33333333       0.007
  -0.33333333 -0.20000000  0.33333333       0.007
  -0.22222222 -0.20000000  0.33333333       0.007
  -0.11111111 -0.20000000  0.33333333       0.007
   0.00000000  0.00000000  0.50000000       0.004
   0.11111111  0.00000000  0.50000000       0.007
   0.22222222  0.00000000  0.50000000       0.007
   0.33333333  0.00000000  0.50000000       0.007
   0.44444444  0.00000000  0.50000000       0.007
   0.00000000  0.20000000  0.50000000       0.007
   0.11111111  0.20000000  0.50000000       0.007
   0.22222222  0.20000000  0.50000000       0.007
   0.33333333  0.20000000  0.50000000       0.007
   0.44444444  0.20000000  0.50000000       0.007
  -0.44444444  0.20000000  0.50000000       0.007
  -0.33333333  0.20000000  0.50000000       0.007
  -0.22222222  0.20000000  0.50000000       0.007
  -0.11111111  0.20000000  0.50000000       0.007
   0.00000000  0.40000000  0.50000000       0.007
   0.11111111  0.40000000  0.50000000       0.007
   0.22222222  0.40000000  0.50000000       0.007
   0.33333333  0.40000000  0.50000000       0.007
   0.44444444  0.40000000  0.50000000       0.007
  -0.44444444  0.40000000  0.50000000       0.007
  -0.33333333  0.40000000  0.50000000       0.007
  -0.22222222  0.40000000  0.50000000       0.007
  -0.11111111  0.40000000  0.50000000       0.007
 
 position of ions in fractional coordinates (direct lattice) 
   0.74971587  0.41737237  0.16771358
   0.20165105  0.45682142  0.35591362
   0.81550360  0.67771011  0.92395395
   0.89020522  0.45997811  0.35554743
   0.89927282  0.80219381  0.51482552
   0.85823043  0.73489517  0.71500190
 
 position of ions in cartesian coordinates  (Angst):
   4.01605609  3.69279824  1.61365673
   2.47441612  4.20273565  2.46170829
   6.64989456  7.49567357  6.26936368
   5.10525072  4.54040220  2.82340455
   6.14359653  7.34603773  3.95688190
   6.37993881  7.37458888  5.08483555
 


--------------------------------------------------------------------------------------------------------


 k-point   1 :   0.0000 0.0000 0.0000  plane waves:    3585
 k-point   2 :   0.1111 0.0000 0.0000  plane waves:    3588
 k-point   3 :   0.2222 0.0000 0.0000  plane waves:    3598
 k-point   4 :   0.3333 0.0000 0.0000  plane waves:    3593
 k-point   5 :   0.4444 0.0000 0.0000  plane waves:    3595
 k-point   6 :   0.0000 0.2000 0.0000  plane waves:    3575
 k-point   7 :   0.1111 0.2000 0.0000  plane waves:    3587
 k-point   8 :   0.2222 0.2000 0.0000  plane waves:    3589
 k-point   9 :   0.3333 0.2000 0.0000  plane waves:    3592
 k-point  10 :   0.4444 0.2000 0.0000  plane waves:    3601
 k-point  11 :  -0.4444 0.2000 0.0000  plane waves:    3602
 k-point  12 :  -0.3333 0.2000 0.0000  plane waves:    3586
 k-point  13 :  -0.2222 0.2000 0.0000  plane waves:    3580
 k-point  14 :  -0.1111 0.2000 0.0000  plane waves:    3568
 k-point  15 :   0.0000 0.4000 0.0000  plane waves:    3569
 k-point  16 :   0.1111 0.4000 0.0000  plane waves:    3589
 k-point  17 :   0.2222 0.4000 0.0000  plane waves:    3598
 k-point  18 :   0.3333 0.4000 0.0000  plane waves:    3603
 k-point  19 :   0.4444 0.4000 0.0000  plane waves:    3599
 k-point  20 :  -0.4444 0.4000 0.0000  plane waves:    3597
 k-point  21 :  -0.3333 0.4000 0.0000  plane waves:    3598
 k-point  22 :  -0.2222 0.4000 0.0000  plane waves:    3599
 k-point  23 :  -0.1111 0.4000 0.0000  plane waves:    3566
 k-point  24 :   0.0000 0.0000 0.1667  plane waves:    3584
 k-point  25 :   0.1111 0.0000 0.1667  plane waves:    3582
 k-point  26 :   0.2222 0.0000 0.1667  plane waves:    3584
 k-point  27 :   0.3333 0.0000 0.1667  plane waves:    3592
 k-point  28 :   0.4444 0.0000 0.1667  plane waves:    3584
 k-point  29 :  -0.4444 0.0000 0.1667  plane waves:    3610
 k-point  30 :  -0.3333 0.0000 0.1667  plane waves:    3597
 k-point  31 :  -0.2222 0.0000 0.1667  plane waves:    3587
 k-point  32 :  -0.1111 0.0000 0.1667  plane waves:    3595
 k-point  33 :   0.0000 0.2000 0.1667  plane waves:    3579
 k-point  34 :   0.1111 0.2000 0.1667  plane waves:    3584
 k-point  35 :   0.2222 0.2000 0.1667  plane waves:    3585
 k-point  36 :   0.3333 0.2000 0.1667  plane waves:    3592
 k-point  37 :   0.4444 0.2000 0.1667  plane waves:    3593
 k-point  38 :  -0.4444 0.2000 0.1667  plane waves:    3592
 k-point  39 :  -0.3333 0.2000 0.1667  plane waves:    3579
 k-point  40 :  -0.2222 0.2000 0.1667  plane waves:    3594
 k-point  41 :  -0.1111 0.2000 0.1667  plane waves:    3584
 k-point  42 :   0.0000 0.4000 0.1667  plane waves:    3567
 k-point  43 :   0.1111 0.4000 0.1667  plane waves:    3586
 k-point  44 :   0.2222 0.4000 0.1667  plane waves:    3588
 k-point  45 :   0.3333 0.4000 0.1667  plane waves:    3600
 k-point  46 :   0.4444 0.4000 0.1667  plane waves:    3598
 k-point  47 :  -0.4444 0.4000 0.1667  plane waves:    3599
 k-point  48 :  -0.3333 0.4000 0.1667  plane waves:    3589
 k-point  49 :  -0.2222 0.4000 0.1667  plane waves:    3584
 k-point  50 :  -0.1111 0.4000 0.1667  plane waves:    3570
 k-point  51 :   0.0000-0.4000 0.1667  plane waves:    3569
 k-point  52 :   0.1111-0.4000 0.1667  plane waves:    3574
 k-point  53 :   0.2222-0.4000 0.1667  plane waves:    3597
 k-point  54 :   0.3333-0.4000 0.1667  plane waves:    3591
 k-point  55 :   0.4444-0.4000 0.1667  plane waves:    3595
 k-point  56 :  -0.4444-0.4000 0.1667  plane waves:    3600
 k-point  57 :  -0.3333-0.4000 0.1667  plane waves:    3603
 k-point  58 :  -0.2222-0.4000 0.1667  plane waves:    3604
 k-point  59 :  -0.1111-0.4000 0.1667  plane waves:    3586
 k-point  60 :   0.0000-0.2000 0.1667  plane waves:    3577
 k-point  61 :   0.1111-0.2000 0.1667  plane waves:    3570
 k-point  62 :   0.2222-0.2000 0.1667  plane waves:    3578
 k-point  63 :   0.3333-0.2000 0.1667  plane waves:    3590
 k-point  64 :   0.4444-0.2000 0.1667  plane waves:    3608
 k-point  65 :  -0.4444-0.2000 0.1667  plane waves:    3605
 k-point  66 :  -0.3333-0.2000 0.1667  plane waves:    3607
 k-point  67 :  -0.2222-0.2000 0.1667  plane waves:    3592
 k-point  68 :  -0.1111-0.2000 0.1667  plane waves:    3590
 k-point  69 :   0.0000 0.0000 0.3333  plane waves:    3574
 k-point  70 :   0.1111 0.0000 0.3333  plane waves:    3568
 k-point  71 :   0.2222 0.0000 0.3333  plane waves:    3576
 k-point  72 :   0.3333 0.0000 0.3333  plane waves:    3593
 k-point  73 :   0.4444 0.0000 0.3333  plane waves:    3597
 k-point  74 :  -0.4444 0.0000 0.3333  plane waves:    3594
 k-point  75 :  -0.3333 0.0000 0.3333  plane waves:    3600
 k-point  76 :  -0.2222 0.0000 0.3333  plane waves:    3586
 k-point  77 :  -0.1111 0.0000 0.3333  plane waves:    3576
 k-point  78 :   0.0000 0.2000 0.3333  plane waves:    3576
 k-point  79 :   0.1111 0.2000 0.3333  plane waves:    3579
 k-point  80 :   0.2222 0.2000 0.3333  plane waves:    3584
 k-point  81 :   0.3333 0.2000 0.3333  plane waves:    3585
 k-point  82 :   0.4444 0.2000 0.3333  plane waves:    3596
 k-point  83 :  -0.4444 0.2000 0.3333  plane waves:    3588
 k-point  84 :  -0.3333 0.2000 0.3333  plane waves:    3589
 k-point  85 :  -0.2222 0.2000 0.3333  plane waves:    3574
 k-point  86 :  -0.1111 0.2000 0.3333  plane waves:    3579
 k-point  87 :   0.0000 0.4000 0.3333  plane waves:    3578
 k-point  88 :   0.1111 0.4000 0.3333  plane waves:    3579
 k-point  89 :   0.2222 0.4000 0.3333  plane waves:    3584
 k-point  90 :   0.3333 0.4000 0.3333  plane waves:    3598
 k-point  91 :   0.4444 0.4000 0.3333  plane waves:    3601
 k-point  92 :  -0.4444 0.4000 0.3333  plane waves:    3595
 k-point  93 :  -0.3333 0.4000 0.3333  plane waves:    3589
 k-point  94 :  -0.2222 0.4000 0.3333  plane waves:    3594
 k-point  95 :  -0.1111 0.4000 0.3333  plane waves:    3590
 k-point  96 :   0.0000-0.4000 0.3333  plane waves:    3566
 k-point  97 :   0.1111-0.4000 0.3333  plane waves:    3566
 k-point  98 :   0.2222-0.4000 0.3333  plane waves:    3594
 k-point  99 :   0.3333-0.4000 0.3333  plane waves:    3598
 k-point 100 :   0.4444-0.4000 0.3333  plane waves:    3598
 k-point 101 :  -0.4444-0.4000 0.3333  plane waves:    3590
 k-point 102 :  -0.3333-0.4000 0.3333  plane waves:    3600
 k-point 103 :  -0.2222-0.4000 0.3333  plane waves:    3602
 k-point 104 :  -0.1111-0.4000 0.3333  plane waves:    3590
 k-point 105 :   0.0000-0.2000 0.3333  plane waves:    3580
 k-point 106 :   0.1111-0.2000 0.3333  plane waves:    3573
 k-point 107 :   0.2222-0.2000 0.3333  plane waves:    3581
 k-point 108 :   0.3333-0.2000 0.3333  plane waves:    3589
 k-point 109 :   0.4444-0.2000 0.3333  plane waves:    3594
 k-point 110 :  -0.4444-0.2000 0.3333  plane waves:    3600
 k-point 111 :  -0.3333-0.2000 0.3333  plane waves:    3602
 k-point 112 :  -0.2222-0.2000 0.3333  plane waves:    3598
 k-point 113 :  -0.1111-0.2000 0.3333  plane waves:    3584
 k-point 114 :   0.0000 0.0000 0.5000  plane waves:    3578
 k-point 115 :   0.1111 0.0000 0.5000  plane waves:    3581
 k-point 116 :   0.2222 0.0000 0.5000  plane waves:    3587
 k-point 117 :   0.3333 0.0000 0.5000  plane waves:    3585
 k-point 118 :   0.4444 0.0000 0.5000  plane waves:    3589
 k-point 119 :   0.0000 0.2000 0.5000  plane waves:    3580
 k-point 120 :   0.1111 0.2000 0.5000  plane waves:    3586
 k-point 121 :   0.2222 0.2000 0.5000  plane waves:    3589
 k-point 122 :   0.3333 0.2000 0.5000  plane waves:    3594
 k-point 123 :   0.4444 0.2000 0.5000  plane waves:    3594
 k-point 124 :  -0.4444 0.2000 0.5000  plane waves:    3594
 k-point 125 :  -0.3333 0.2000 0.5000  plane waves:    3581
 k-point 126 :  -0.2222 0.2000 0.5000  plane waves:    3583
 k-point 127 :  -0.1111 0.2000 0.5000  plane waves:    3567
 k-point 128 :   0.0000 0.4000 0.5000  plane waves:    3588
 k-point 129 :   0.1111 0.4000 0.5000  plane waves:    3590
 k-point 130 :   0.2222 0.4000 0.5000  plane waves:    3591
 k-point 131 :   0.3333 0.4000 0.5000  plane waves:    3591
 k-point 132 :   0.4444 0.4000 0.5000  plane waves:    3590
 k-point 133 :  -0.4444 0.4000 0.5000  plane waves:    3602
 k-point 134 :  -0.3333 0.4000 0.5000  plane waves:    3591
 k-point 135 :  -0.2222 0.4000 0.5000  plane waves:    3586
 k-point 136 :  -0.1111 0.4000 0.5000  plane waves:    3586

 maximum and minimum number of plane-waves per node :      3610     3566

 maximum number of plane-waves:      3610
 maximum index in each direction: 
   IXMAX=    7   IYMAX=   13   IZMAX=   12
   IXMIN=   -7   IYMIN=  -13   IZMIN=  -13


 serial   3D FFT for wavefunctions
 parallel 3D FFT for charge:
    minimum data exchange during FFTs selected (reduces bandwidth)


 total amount of memory used by VASP MPI-rank0   266260. kBytes
=======================================================================

   base      :      30000. kBytes
   nonl-proj :      63189. kBytes
   fftplans  :      10716. kBytes
   grid      :      19061. kBytes
   one-center:         18. kBytes
   wavefun   :     143276. kBytes
 
     INWAV:  cpu time    0.0002: real time    0.0003
 Broyden mixing: mesh for mixing (old mesh)
   NGX = 15   NGY = 27   NGZ = 25
  (NGX  = 48   NGY  = 80   NGZ  = 80)
  gives a total of  10125 points

 initial charge density was supplied:
 charge density of overlapping atoms calculated
 number of electron      29.0000000 magnetization 
 keeping initial charge density in first step


--------------------------------------------------------------------------------------------------------


 Maximum index for augmentation-charges          8812 (set IRDMAX)


--------------------------------------------------------------------------------------------------------


 First call to EWALD:  gamma=   0.340
 Maximum number of real-space cells 4x 2x 3
 Maximum number of reciprocal cells 2x 4x 4

    FEWALD:  cpu time    0.0008: real time    0.0008


--------------------------------------- Iteration      1(   1)  ---------------------------------------


    POTLOK:  cpu time    0.0185: real time    0.0192
    SETDIJ:  cpu time    0.0052: real time    0.0052
     EDDAV:  cpu time    4.5310: real time    4.6305
 BZINTS: Fermi energy:   10.217503;   29.000000 electrons
         Band energy:-0.913512E+02;  BLOECHL correction:   -0.229029
       DOS:  cpu time    0.1756: real time    0.1783
    --------------------------------------------
      LOOP:  cpu time    4.7303: real time    4.8331

 eigenvalue-minimisations  :  4896
 total energy-change (2. order) : 0.2119686E+03  (-0.1287725E+04)
 number of electron      29.0000000 magnetization 
 augmentation part       29.0000000 magnetization 

 Free energy of the ion-electron system (eV)
  ---------------------------------------------------
  alpha Z        PSCENC =        23.83152631
  Ewald energy   TEWEN  =      -376.02611580
  -Hartree energ DENC   =      -869.85661282
  -exchange      EXHF   =         0.00000000
  -V(xc)+E(xc)   XCENC  =        87.99209362
  PAW double counting   =      1112.78745767    -1101.14909631
  entropy T*S    EENTRO =         0.00000000
  eigenvalues    EBANDS =       -91.35115134
  atomic energy  EATOM  =      1425.74050402
  Solvation  Ediel_sol  =         0.00000000
  ---------------------------------------------------
  free energy    TOTEN  =       211.96860537 eV

  energy without entropy =      211.96860537  energy(sigma->0) =      211.96860537


--------------------------------------------------------------------------------------------------------




--------------------------------------- Iteration      1(   2)  ---------------------------------------


     EDDAV:  cpu time    6.2765: real time    6.4168
 BZINTS: Fermi energy:   -0.342937;   29.000000 electrons
         Band energy:-0.325470E+03;  BLOECHL correction:   -0.146554
       DOS:  cpu time    0.1320: real time    0.1338
    --------------------------------------------
      LOOP:  cpu time    6.4085: real time    6.5506

 eigenvalue-minimisations  :  6852
 total energy-change (2. order) :-0.2341191E+03  (-0.2310608E+03)
 number of electron      29.0000000 magnetization 
 augmentation part       29.0000000 magnetization 

 Free energy of the ion-electron system (eV)
  ---------------------------------------------------
  alpha Z        PSCENC =        23.83152631
  Ewald energy   TEWEN  =      -376.02611580
  -Hartree energ DENC   =      -869.85661282
  -exchange      EXHF   =         0.00000000
  -V(xc)+E(xc)   XCENC  =        87.99209362
  PAW double counting   =      1112.78745767    -1101.14909631
  entropy T*S    EENTRO =         0.00000000
  eigenvalues    EBANDS =      -325.47028738
  atomic energy  EATOM  =      1425.74050402
  Solvation  Ediel_sol  =         0.00000000
  ---------------------------------------------------
  free energy    TOTEN  =       -22.15053067 eV

  energy without entropy =      -22.15053067  energy(sigma->0) =      -22.15053067


--------------------------------------------------------------------------------------------------------




--------------------------------------- Iteration      1(   3)  ---------------------------------------


     EDDAV:  cpu time    5.5090: real time    5.6299
 BZINTS: Fermi energy:   -1.779459;   29.000000 electrons
         Band energy:-0.348971E+03;  BLOECHL correction:   -0.024469
       DOS:  cpu time    0.0923: real time    0.0938
    --------------------------------------------
      LOOP:  cpu time    5.6012: real time    5.7237

 eigenvalue-minimisations  :  5994
 total energy-change (2. order) :-0.2350078E+02  (-0.2329180E+02)
 number of electron      29.0000000 magnetization 
 augmentation part       29.0000000 magnetization 

 Free energy of the ion-electron system (eV)
  ---------------------------------------------------
  alpha Z        PSCENC =        23.83152631
  Ewald energy   TEWEN  =      -376.02611580
  -Hartree energ DENC   =      -869.85661282
  -exchange      EXHF   =         0.00000000
  -V(xc)+E(xc)   XCENC  =        87.99209362
  PAW double counting   =      1112.78745767    -1101.14909631
  entropy T*S    EENTRO =         0.00000000
  eigenvalues    EBANDS =      -348.97107041
  atomic energy  EATOM  =      1425.74050402
  Solvation  Ediel_sol  =         0.00000000
  ---------------------------------------------------
  free energy    TOTEN  =       -45.65131370 eV

  energy without entropy =      -45.65131370  energy(sigma->0) =      -45.65131370


--------------------------------------------------------------------------------------------------------




--------------------------------------- Iteration      1(   4)  ---------------------------------------


     EDDAV:  cpu time    6.2468: real time    6.3951
 BZINTS: Fermi energy:   -1.880913;   29.000000 electrons
         Band energy:-0.349493E+03;  BLOECHL correction:   -0.020140
       DOS:  cpu time    0.0903: real time    0.0919
    --------------------------------------------
      LOOP:  cpu time    6.3371: real time    6.4869

 eigenvalue-minimisations  :  6932
 total energy-change (2. order) :-0.5214864E+00  (-0.5144324E+00)
 number of electron      29.0000000 magnetization 
 augmentation part       29.0000000 magnetization 

 Free energy of the ion-electron system (eV)
  ---------------------------------------------------
  alpha Z        PSCENC =        23.83152631
  Ewald energy   TEWEN  =      -376.02611580
  -Hartree energ DENC   =      -869.85661282
  -exchange      EXHF   =         0.00000000
  -V(xc)+E(xc)   XCENC  =        87.99209362
  PAW double counting   =      1112.78745767    -1101.14909631
  entropy T*S    EENTRO =         0.00000000
  eigenvalues    EBANDS =      -349.49255679
  atomic energy  EATOM  =      1425.74050402
  Solvation  Ediel_sol  =         0.00000000
  ---------------------------------------------------
  free energy    TOTEN  =       -46.17280008 eV

  energy without entropy =      -46.17280008  energy(sigma->0) =      -46.17280008


--------------------------------------------------------------------------------------------------------




--------------------------------------- Iteration      1(   5)  ---------------------------------------


     EDDAV:  cpu time    5.7770: real time    5.9048
 BZINTS: Fermi energy:   -1.883764;   29.000000 electrons
         Band energy:-0.349502E+03;  BLOECHL correction:   -0.020097
       DOS:  cpu time    0.0852: real time    0.0870
    CHARGE:  cpu time    0.3484: real time    0.3546
    MIXING:  cpu time    0.0042: real time    0.0043
    --------------------------------------------
      LOOP:  cpu time    6.2148: real time    6.3507

 eigenvalue-minimisations  :  6338
 total energy-change (2. order) :-0.9047327E-02  (-0.8944872E-02)
 number of electron      28.9999998 magnetization 
 augmentation part        1.0043445 magnetization 

 Broyden mixing:
  rms(total) = 0.13505E+01    rms(broyden)= 0.13501E+01
  rms(prec ) = 0.20315E+01
  weight for this iteration     100.00

 Free energy of the ion-electron system (eV)
  ---------------------------------------------------
  alpha Z        PSCENC =        23.83152631
  Ewald energy   TEWEN  =      -376.02611580
  -Hartree energ DENC   =      -869.85661282
  -exchange      EXHF   =         0.00000000
  -V(xc)+E(xc)   XCENC  =        87.99209362
  PAW double counting   =      1112.78745767    -1101.14909631
  entropy T*S    EENTRO =         0.00000000
  eigenvalues    EBANDS =      -349.50160412
  atomic energy  EATOM  =      1425.74050402
  Solvation  Ediel_sol  =         0.00000000
  ---------------------------------------------------
  free energy    TOTEN  =       -46.18184741 eV

  energy without entropy =      -46.18184741  energy(sigma->0) =      -46.18184741


--------------------------------------------------------------------------------------------------------




--------------------------------------- Iteration      1(   6)  ---------------------------------------


    POTLOK:  cpu time    0.0113: real time    0.0117
    SETDIJ:  cpu time    0.0051: real time    0.0053
    EDDIAG:  cpu time    0.7116: real time    0.7272
  RMM-DIIS:  cpu time    4.1992: real time    4.6001
    ORTHCH:  cpu time    0.1074: real time    0.1092
 BZINTS: Fermi energy:   -0.515749;   29.000000 electrons
         Band energy:-0.309774E+03;  BLOECHL correction:   -0.010093
       DOS:  cpu time    0.0921: real time    0.0946
    CHARGE:  cpu time    0.3617: real time    0.3691
    MIXING:  cpu time    0.0048: real time    0.0049
    --------------------------------------------
      LOOP:  cpu time    5.4931: real time    5.9221

 eigenvalue-minimisations  :  4997
 total energy-change (2. order) : 0.2776345E+01  (-0.8581667E+00)
 number of electron      28.9999999 magnetization 
 augmentation part        0.8220629 magnetization 

 Broyden mixing:
  rms(total) = 0.71623E+00    rms(broyden)= 0.71619E+00
  rms(prec ) = 0.87913E+00
  weight for this iteration     100.00

 eigenvalues of (default mixing * dielectric matrix)
  average eigenvalue GAMMA=   1.3080
  1.3080

 Free energy of the ion-electron system (eV)
  ---------------------------------------------------
  alpha Z        PSCENC =        23.83152631
  Ewald energy   TEWEN  =      -376.02611580
  -Hartree energ DENC   =      -908.56649264
  -exchange      EXHF   =         0.00000000
  -V(xc)+E(xc)   XCENC  =        90.28208136
  PAW double counting   =      1797.13572632    -1786.02921689
  entropy T*S    EENTRO =         0.00000000
  eigenvalues    EBANDS =      -309.77351463
  atomic energy  EATOM  =      1425.74050402
  Solvation  Ediel_sol  =         0.00000000
  ---------------------------------------------------
  free energy    TOTEN  =       -43.40550193 eV

  energy without entropy =      -43.40550193  energy(sigma->0) =      -43.40550193


--------------------------------------------------------------------------------------------------------




--------------------------------------- Iteration      1(   7)  ---------------------------------------


    POTLOK:  cpu time    0.0114: real time    0.0119
    SETDIJ:  cpu time    0.0057: real time    0.0057
    EDDIAG:  cpu time    0.7324: real time    0.7499
  RMM-DIIS:  cpu time    4.2307: real time    4.5940
    ORTHCH:  cpu time    0.1046: real time    0.1116
 BZINTS: Fermi energy:   -0.557892;   29.000000 electrons
         Band energy:-0.300208E+03;  BLOECHL correction:   -0.010995
       DOS:  cpu time    0.0890: real time    0.0941
    CHARGE:  cpu time    0.3463: real time    0.3702
    MIXING:  cpu time    0.0043: real time    0.0047
    --------------------------------------------
      LOOP:  cpu time    5.5243: real time    5.9421

 eigenvalue-minimisations  :  5069
 total energy-change (2. order) : 0.1771686E+00  (-0.1892657E+00)
 number of electron      28.9999999 magnetization 
 augmentation part        0.8005241 magnetization 

 Broyden mixing:
  rms(total) = 0.39265E+00    rms(broyden)= 0.39262E+00
  rms(prec ) = 0.45447E+00
  weight for this iteration     100.00

 eigenvalues of (default mixing * dielectric matrix)
  average eigenvalue GAMMA=   1.5118
  1.0213  2.0023

 Free energy of the ion-electron system (eV)
  ---------------------------------------------------
  alpha Z        PSCENC =        23.83152631
  Ewald energy   TEWEN  =      -376.02611580
  -Hartree energ DENC   =      -918.37654676
  -exchange      EXHF   =         0.00000000
  -V(xc)+E(xc)   XCENC  =        90.95752599
  PAW double counting   =      2385.85231436    -2374.99939238
  entropy T*S    EENTRO =         0.00000000
  eigenvalues    EBANDS =      -300.20814912
  atomic energy  EATOM  =      1425.74050402
  Solvation  Ediel_sol  =         0.00000000
  ---------------------------------------------------
  free energy    TOTEN  =       -43.22833336 eV

  energy without entropy =      -43.22833336  energy(sigma->0) =      -43.22833336


--------------------------------------------------------------------------------------------------------




--------------------------------------- Iteration      1(   8)  ---------------------------------------


    POTLOK:  cpu time    0.0107: real time    0.0118
    SETDIJ:  cpu time    0.0053: real time    0.0054
    EDDIAG:  cpu time    0.7177: real time    0.7580
  RMM-DIIS:  cpu time    4.2832: real time    4.5592
    ORTHCH:  cpu time    0.1046: real time    0.1064
 BZINTS: Fermi energy:   -0.443470;   29.000000 electrons
         Band energy:-0.295718E+03;  BLOECHL correction:   -0.011209
       DOS:  cpu time    0.0875: real time    0.0888
    CHARGE:  cpu time    0.3538: real time    0.3761
    MIXING:  cpu time    0.0044: real time    0.0046
    --------------------------------------------
      LOOP:  cpu time    5.5672: real time    5.9103

 eigenvalue-minimisations  :  5210
 total energy-change (2. order) : 0.3372784E-01  (-0.3706923E-01)
 number of electron      28.9999999 magnetization 
 augmentation part        0.7890928 magnetization 

 Broyden mixing:
  rms(total) = 0.13597E+00    rms(broyden)= 0.13596E+00
  rms(prec ) = 0.16195E+00
  weight for this iteration     100.00

 eigenvalues of (default mixing * dielectric matrix)
  average eigenvalue GAMMA=   1.5253
  2.3891  0.9845  1.2022

 Free energy of the ion-electron system (eV)
  ---------------------------------------------------
  alpha Z        PSCENC =        23.83152631
  Ewald energy   TEWEN  =      -376.02611580
  -Hartree energ DENC   =      -923.00706335
  -exchange      EXHF   =         0.00000000
  -V(xc)+E(xc)   XCENC  =        91.32154134
  PAW double counting   =      2937.99348902    -2927.33004348
  entropy T*S    EENTRO =         0.00000000
  eigenvalues    EBANDS =      -295.71844359
  atomic energy  EATOM  =      1425.74050402
  Solvation  Ediel_sol  =         0.00000000
  ---------------------------------------------------
  free energy    TOTEN  =       -43.19460552 eV

  energy without entropy =      -43.19460552  energy(sigma->0) =      -43.19460552


--------------------------------------------------------------------------------------------------------




--------------------------------------- Iteration      1(   9)  ---------------------------------------


    POTLOK:  cpu time    0.0108: real time    0.0121
    SETDIJ:  cpu time    0.0059: real time    0.0062
    EDDIAG:  cpu time    0.7319: real time    0.7863
  RMM-DIIS:  cpu time    4.2499: real time    4.5380
    ORTHCH:  cpu time    0.1063: real time    0.1146
 BZINTS: Fermi energy:   -0.384424;   29.000000 electrons
         Band energy:-0.295426E+03;  BLOECHL correction:   -0.011148
       DOS:  cpu time    0.0895: real time    0.0950
    CHARGE:  cpu time    0.3567: real time    0.3822
    MIXING:  cpu time    0.0046: real time    0.0048
    --------------------------------------------
      LOOP:  cpu time    5.5556: real time    5.9392

 eigenvalue-minimisations  :  5166
 total energy-change (2. order) :-0.1140126E-02  (-0.8278848E-02)
 number of electron      28.9999999 magnetization 
 augmentation part        0.7898088 magnetization 

 Broyden mixing:
  rms(total) = 0.28163E-01    rms(broyden)= 0.28152E-01
  rms(prec ) = 0.39816E-01
  weight for this iteration     100.00

 eigenvalues of (default mixing * dielectric matrix)
  average eigenvalue GAMMA=   1.4466
  2.3209  1.5194  0.9731  0.9731

 Free energy of the ion-electron system (eV)
  ---------------------------------------------------
  alpha Z        PSCENC =        23.83152631
  Ewald energy   TEWEN  =      -376.02611580
  -Hartree energ DENC   =      -923.31288836
  -exchange      EXHF   =         0.00000000
  -V(xc)+E(xc)   XCENC  =        91.38059536
  PAW double counting   =      3185.34974690    -3174.73295460
  entropy T*S    EENTRO =         0.00000000
  eigenvalues    EBANDS =      -295.42615949
  atomic energy  EATOM  =      1425.74050402
  Solvation  Ediel_sol  =         0.00000000
  ---------------------------------------------------
  free energy    TOTEN  =       -43.19574565 eV

  energy without entropy =      -43.19574565  energy(sigma->0) =      -43.19574565


--------------------------------------------------------------------------------------------------------




--------------------------------------- Iteration      1(  10)  ---------------------------------------


    POTLOK:  cpu time    0.0106: real time    0.0117
    SETDIJ:  cpu time    0.0056: real time    0.0060
    EDDIAG:  cpu time    0.7311: real time    0.7823
  RMM-DIIS:  cpu time    5.0473: real time    5.4117
    ORTHCH:  cpu time    0.1026: real time    0.1046
 BZINTS: Fermi energy:   -0.389451;   29.000000 electrons
         Band energy:-0.295713E+03;  BLOECHL correction:   -0.011155
       DOS:  cpu time    0.0813: real time    0.0839
    CHARGE:  cpu time    0.3320: real time    0.3376
    MIXING:  cpu time    0.0047: real time    0.0047
    --------------------------------------------
      LOOP:  cpu time    6.3152: real time    6.7424

 eigenvalue-minimisations  :  5942
 total energy-change (2. order) :-0.2090484E-02  (-0.2187716E-02)
 number of electron      28.9999999 magnetization 
 augmentation part        0.7879278 magnetization 

 Broyden mixing:
  rms(total) = 0.18761E-01    rms(broyden)= 0.18756E-01
  rms(prec ) = 0.26348E-01
  weight for this iteration     100.00

 eigenvalues of (default mixing * dielectric matrix)
  average eigenvalue GAMMA=   1.4121
  2.1338  2.1338  1.0264  1.0264  0.7401

 Free energy of the ion-electron system (eV)
  ---------------------------------------------------
  alpha Z        PSCENC =        23.83152631
  Ewald energy   TEWEN  =      -376.02611580
  -Hartree energ DENC   =      -923.02121336
  -exchange      EXHF   =         0.00000000
  -V(xc)+E(xc)   XCENC  =        91.36695692
  PAW double counting   =      3199.03203956    -3188.40806417
  entropy T*S    EENTRO =         0.00000000
  eigenvalues    EBANDS =      -295.71346963
  atomic energy  EATOM  =      1425.74050402
  Solvation  Ediel_sol  =         0.00000000
  ---------------------------------------------------
  free energy    TOTEN  =       -43.19783613 eV

  energy without entropy =      -43.19783613  energy(sigma->0) =      -43.19783613


--------------------------------------------------------------------------------------------------------




--------------------------------------- Iteration      1(  11)  ---------------------------------------


    POTLOK:  cpu time    0.0113: real time    0.0122
    SETDIJ:  cpu time    0.0055: real time    0.0059
    EDDIAG:  cpu time    0.7194: real time    0.7709
  RMM-DIIS:  cpu time    4.2027: real time    4.4801
    ORTHCH:  cpu time    0.1038: real time    0.1111
 BZINTS: Fermi energy:   -0.402936;   29.000000 electrons
         Band energy:-0.295991E+03;  BLOECHL correction:   -0.011192
       DOS:  cpu time    0.0890: real time    0.0942
    CHARGE:  cpu time    0.3471: real time    0.3712
    MIXING:  cpu time    0.0053: real time    0.0058
    --------------------------------------------
      LOOP:  cpu time    5.4842: real time    5.8513

 eigenvalue-minimisations  :  5224
 total energy-change (2. order) :-0.6798113E-04  (-0.2560641E-03)
 number of electron      28.9999999 magnetization 
 augmentation part        0.7879841 magnetization 

 Broyden mixing:
  rms(total) = 0.82954E-02    rms(broyden)= 0.82931E-02
  rms(prec ) = 0.12120E-01
  weight for this iteration     100.00

 eigenvalues of (default mixing * dielectric matrix)
  average eigenvalue GAMMA=   1.4963
  2.4710  2.4710  1.3327  1.0215  1.0215  0.6597

 Free energy of the ion-electron system (eV)
  ---------------------------------------------------
  alpha Z        PSCENC =        23.83152631
  Ewald energy   TEWEN  =      -376.02611580
  -Hartree energ DENC   =      -922.73437290
  -exchange      EXHF   =         0.00000000
  -V(xc)+E(xc)   XCENC  =        91.34717998
  PAW double counting   =      3191.46230921    -3180.82819334
  entropy T*S    EENTRO =         0.00000000
  eigenvalues    EBANDS =      -295.99074162
  atomic energy  EATOM  =      1425.74050402
  Solvation  Ediel_sol  =         0.00000000
  ---------------------------------------------------
  free energy    TOTEN  =       -43.19790412 eV

  energy without entropy =      -43.19790412  energy(sigma->0) =      -43.19790412


--------------------------------------------------------------------------------------------------------




--------------------------------------- Iteration      1(  12)  ---------------------------------------


    POTLOK:  cpu time    0.0107: real time    0.0118
    SETDIJ:  cpu time    0.0055: real time    0.0058
    EDDIAG:  cpu time    0.7206: real time    0.7745
[...]
     17       2.3366      0.00000
     18       2.7221      0.00000

 k-point   122 :       0.3333    0.2000    0.5000
  band No.  band energies     occupation 
      1     -24.7047      2.00000
      2     -22.6564      2.00000
      3     -20.5593      2.00000
      4     -14.3100      2.00000
      5     -11.0685      2.00000
      6      -9.3505      2.00000
      7      -8.7737      2.00000
      8      -8.6998      2.00000
      9      -7.1171      2.00000
     10      -6.7317      2.00000
     11      -6.3177      2.00000
     12      -4.1085      2.00000
     13      -3.3130      2.00000
     14      -2.2818      2.00000
     15      -0.8145      1.92870
     16       0.4720      0.00000
     17       2.2368      0.00000
     18       2.7324      0.00000

 k-point   123 :       0.4444    0.2000    0.5000
  band No.  band energies     occupation 
      1     -24.6983      2.00000
      2     -22.6184      2.00000
      3     -20.5600      2.00000
      4     -14.5920      2.00000
      5     -10.9654      2.00000
      6      -9.2616      2.00000
      7      -8.7799      2.00000
      8      -8.6811      2.00000
      9      -7.0441      2.00000
     10      -6.6933      2.00000
     11      -5.9992      2.00000
     12      -4.2210      2.00000
     13      -3.3576      2.00000
     14      -2.4406      2.00000
     15      -1.0320      2.00000
     16       0.7181      0.00000
     17       2.0541      0.00000
     18       2.7628      0.00000

 k-point   124 :      -0.4444    0.2000    0.5000
  band No.  band energies     occupation 
      1     -24.6983      2.00000
      2     -22.6184      2.00000
      3     -20.5600      2.00000
      4     -14.5920      2.00000
      5     -10.9657      2.00000
      6      -9.2625      2.00000
      7      -8.7781      2.00000
      8      -8.6804      2.00000
      9      -7.0666      2.00000
     10      -6.6718      2.00000
     11      -5.9987      2.00000
     12      -4.2224      2.00000
     13      -3.3506      2.00000
     14      -2.4446      2.00000
     15      -1.0303      2.00000
     16       0.7117      0.00000
     17       2.0913      0.00000
     18       2.7790      0.00000

 k-point   125 :      -0.3333    0.2000    0.5000
  band No.  band energies     occupation 
      1     -24.7046      2.00000
      2     -22.6564      2.00000
      3     -20.5593      2.00000
      4     -14.3100      2.00000
      5     -11.0692      2.00000
      6      -9.3512      2.00000
      7      -8.7695      2.00000
      8      -8.6994      2.00000
      9      -7.1686      2.00000
     10      -6.6834      2.00000
     11      -6.3144      2.00000
     12      -4.1121      2.00000
     13      -3.3019      2.00000
     14      -2.2859      2.00000
     15      -0.8102      1.90965
     16       0.4631      0.00000
     17       2.3353      0.00000
     18       2.7339      0.00000

 k-point   126 :      -0.2222    0.2000    0.5000
  band No.  band energies     occupation 
      1     -24.7143      2.00000
      2     -22.7131      2.00000
      3     -20.5582      2.00000
      4     -13.7895      2.00000
      5     -11.2717      2.00000
      6      -9.6369      2.00000
      7      -8.7360      2.00000
      8      -8.6785      2.00000
      9      -7.3032      2.00000
     10      -6.7826      2.00000
     11      -6.6334      2.00000
     12      -3.9882      2.00000
     13      -3.2524      2.00000
     14      -1.9590      2.00000
     15      -0.5225      0.03895
     16       0.2736      0.00000
     17       2.4901      0.00000
     18       2.6498      0.00000

 k-point   127 :      -0.1111    0.2000    0.5000
  band No.  band energies     occupation 
      1     -24.7226      2.00000
      2     -22.7614      2.00000
      3     -20.5574      2.00000
      4     -13.1258      2.00000
      5     -11.6107      2.00000
      6     -10.0008      2.00000
      7      -8.7699      2.00000
      8      -8.5678      2.00000
      9      -7.4139      2.00000
     10      -7.0175      2.00000
     11      -6.6816      2.00000
     12      -3.9144      2.00000
     13      -3.2217      2.00000
     14      -1.5438      2.00000
     15      -0.5412     -0.15285
     16       0.4155      0.00000
     17       2.4809      0.00000
     18       2.6545      0.00000

 k-point   128 :       0.0000    0.4000    0.5000
  band No.  band energies     occupation 
      1     -24.7261      2.00000
      2     -22.7800      2.00000
      3     -20.5572      2.00000
      4     -12.6500      2.00000
      5     -11.9545      2.00000
      6     -10.1638      2.00000
      7      -8.7644      2.00000
      8      -8.5193      2.00000
      9      -7.5088      2.00000
     10      -7.1001      2.00000
     11      -6.6496      2.00000
     12      -3.9466      2.00000
     13      -3.2123      2.00000
     14      -1.1413      2.00000
     15      -0.6950      0.68562
     16       0.5824      0.00000
     17       2.1997      0.00000
     18       2.6950      0.00000

 k-point   129 :       0.1111    0.4000    0.5000
  band No.  band energies     occupation 
      1     -24.7228      2.00000
      2     -22.7613      2.00000
      3     -20.5575      2.00000
      4     -13.1276      2.00000
      5     -11.6106      2.00000
      6     -10.0017      2.00000
      7      -8.7517      2.00000
      8      -8.5674      2.00000
      9      -7.4469      2.00000
     10      -7.0208      2.00000
     11      -6.6575      2.00000
     12      -3.9682      2.00000
     13      -3.2219      2.00000
     14      -1.4420      2.00000
     15      -0.4984     -0.16137
     16       0.4239      0.00000
     17       2.2198      0.00000
     18       2.6739      0.00000

 k-point   130 :       0.2222    0.4000    0.5000
  band No.  band energies     occupation 
      1     -24.7144      2.00000
      2     -22.7130      2.00000
      3     -20.5582      2.00000
      4     -13.7908      2.00000
      5     -11.2716      2.00000
      6      -9.6385      2.00000
      7      -8.7213      2.00000
      8      -8.6781      2.00000
      9      -7.3077      2.00000
     10      -6.7884      2.00000
     11      -6.6333      2.00000
     12      -4.0476      2.00000
     13      -3.2558      2.00000
     14      -1.8607      2.00000
     15      -0.4947     -0.01878
     16       0.3008      0.00000
     17       2.2713      0.00000
     18       2.6003      0.00000

 k-point   131 :       0.3333    0.4000    0.5000
  band No.  band energies     occupation 
      1     -24.7047      2.00000
      2     -22.6564      2.00000
      3     -20.5591      2.00000
      4     -14.3111      2.00000
      5     -11.0691      2.00000
      6      -9.3537      2.00000
      7      -8.7663      2.00000
      8      -8.6903      2.00000
      9      -7.1494      2.00000
     10      -6.7062      2.00000
     11      -6.3143      2.00000
     12      -4.1836      2.00000
     13      -3.3088      2.00000
     14      -2.1775      2.00000
     15      -0.7994      1.85924
     16       0.5031      0.00000
     17       2.1903      0.00000
     18       2.5681      0.00000

 k-point   132 :       0.4444    0.4000    0.5000
  band No.  band energies     occupation 
      1     -24.6984      2.00000
      2     -22.6184      2.00000
      3     -20.5597      2.00000
      4     -14.5930      2.00000
      5     -10.9655      2.00000
      6      -9.2662      2.00000
      7      -8.7723      2.00000
      8      -8.6743      2.00000
      9      -7.0464      2.00000
     10      -6.6899      2.00000
     11      -5.9982      2.00000
     12      -4.3055      2.00000
     13      -3.3500      2.00000
     14      -2.3346      2.00000
     15      -1.0234      2.00000
     16       0.7618      0.00000
     17       1.9515      0.00000
     18       2.6107      0.00000

 k-point   133 :      -0.4444    0.4000    0.5000
  band No.  band energies     occupation 
      1     -24.6984      2.00000
      2     -22.6184      2.00000
      3     -20.5598      2.00000
      4     -14.5931      2.00000
      5     -10.9657      2.00000
      6      -9.2667      2.00000
      7      -8.7713      2.00000
      8      -8.6739      2.00000
      9      -7.0607      2.00000
     10      -6.6763      2.00000
     11      -5.9980      2.00000
     12      -4.3062      2.00000
     13      -3.3463      2.00000
     14      -2.3367      2.00000
     15      -1.0223      2.00000
     16       0.7570      0.00000
     17       1.9751      0.00000
     18       2.6131      0.00000

 k-point   134 :      -0.3333    0.4000    0.5000
  band No.  band energies     occupation 
      1     -24.7047      2.00000
      2     -22.6564      2.00000
      3     -20.5591      2.00000
      4     -14.3111      2.00000
      5     -11.0695      2.00000
      6      -9.3542      2.00000
      7      -8.7639      2.00000
      8      -8.6897      2.00000
      9      -7.1793      2.00000
     10      -6.6785      2.00000
     11      -6.3122      2.00000
     12      -4.1856      2.00000
     13      -3.3028      2.00000
     14      -2.1795      2.00000
     15      -0.7967      1.84661
     16       0.4970      0.00000
     17       2.2613      0.00000
     18       2.5489      0.00000

 k-point   135 :      -0.2222    0.4000    0.5000
  band No.  band energies     occupation 
      1     -24.7144      2.00000
      2     -22.7130      2.00000
      3     -20.5582      2.00000
      4     -13.7907      2.00000
      5     -11.2723      2.00000
      6      -9.6377      2.00000
      7      -8.7204      2.00000
      8      -8.6768      2.00000
      9      -7.3358      2.00000
     10      -6.7811      2.00000
     11      -6.6110      2.00000
     12      -4.0505      2.00000
     13      -3.2538      2.00000
     14      -1.8570      2.00000
     15      -0.4930     -0.02349
     16       0.2955      0.00000
     17       2.3640      0.00000
     18       2.5508      0.00000

 k-point   136 :      -0.1111    0.4000    0.5000
  band No.  band energies     occupation 
      1     -24.7227      2.00000
      2     -22.7613      2.00000
      3     -20.5575      2.00000
      4     -13.1274      2.00000
      5     -11.6114      2.00000
      6     -10.0009      2.00000
      7      -8.7510      2.00000
      8      -8.5671      2.00000
      9      -7.4631      2.00000
     10      -7.0197      2.00000
     11      -6.6404      2.00000
     12      -3.9707      2.00000
     13      -3.2225      2.00000
     14      -1.4327      2.00000
     15      -0.5056     -0.16343
     16       0.4243      0.00000
     17       2.2662      0.00000
     18       2.6490      0.00000


--------------------------------------------------------------------------------------------------------


 soft charge-density along one line, spin component            1
         0         1         2         3         4         5         6         7         8         9
 total charge-density along one line
 
 pseudopotential strength for first ion, spin component:            1
 19.281  26.906   0.017   0.002  -0.000   0.033   0.005  -0.001
 26.906  37.550   0.024   0.003  -0.000   0.047   0.006  -0.001
  0.017   0.024   4.296   0.000   0.001   8.013   0.001   0.001
  0.002   0.003   0.000   4.300  -0.000   0.001   8.019  -0.000
 -0.000  -0.000   0.001  -0.000   4.300   0.001  -0.000   8.020
  0.033   0.047   8.013   0.001   0.001  14.954   0.002   0.002
  0.005   0.006   0.001   8.019  -0.000   0.002  14.967  -0.000
 -0.001  -0.001   0.001  -0.000   8.020   0.002  -0.000  14.967
 total augmentation occupancy for first ion, spin component:            1
  8.211  -4.163   2.599   0.833  -0.228  -0.870  -0.319   0.080
 -4.163   2.571  -1.944  -0.599   0.159   0.544   0.204  -0.048
  2.599  -1.944   2.884  -0.340   0.281  -0.675   0.127  -0.122
  0.833  -0.599  -0.340   4.245  -0.066   0.125  -1.327   0.033
 -0.228   0.159   0.281  -0.066   3.783  -0.121   0.033  -1.145
 -0.870   0.544  -0.675   0.125  -0.121   0.187  -0.043   0.044
 -0.319   0.204   0.127  -1.327   0.033  -0.043   0.426  -0.012
  0.080  -0.048  -0.122   0.033  -1.145   0.044  -0.012   0.364


------------------------ aborting loop because EDIFF is reached ----------------------------------------


    CHARGE:  cpu time    0.3936: real time    0.4030
    FORLOC:  cpu time    0.0026: real time    0.0027
    FORNL :  cpu time    1.0676: real time    1.0889
    STRESS:  cpu time    6.9201: real time    7.0698
    FORCOR:  cpu time    0.0167: real time    0.0169
    FORHAR:  cpu time    0.0060: real time    0.0061
    MIXING:  cpu time    0.0049: real time    0.0050
    OFIELD:  cpu time    0.0000: real time    0.0000

  FORCE on cell =-STRESS in cart. coord.  units (eV):
  Direction    XX          YY          ZZ          XY          YZ          ZX
  --------------------------------------------------------------------------------------
  Alpha Z    23.23707    23.23707    23.23707
  Ewald     156.98699  -788.06250   263.35556   136.29009    57.41175   198.52203
  Hartree   522.86157   -59.33464   462.28934    79.11430    61.10286    80.55099
  E(xc)    -119.21188  -120.55809  -118.03488     0.21280     0.01959     0.58329
  Local   -1074.29672   415.24746 -1082.64559  -209.04383  -117.89047  -258.66548
  n-local   -21.67673   -20.58104   -24.68614     0.08297    -0.98750    -0.50583
  augment    -1.22880    -1.26562    -1.92646    -0.05790     0.01979    -0.36983
  Kinetic   513.39934   551.33143   478.30046    -6.51893     0.50197   -20.10545
  Fock        0.00000     0.00000     0.00000     0.00000     0.00000     0.00000
  -------------------------------------------------------------------------------------
  Total       0.07085     0.01407    -0.11064     0.07951     0.17798     0.00972
  in kB       0.78301     0.15552    -1.22271     0.87868     1.96698     0.10744
  external pressure =       -0.09 kB  Pullay stress =        0.00 kB


 VOLUME and BASIS-vectors are now :
 -----------------------------------------------------------------------------
  energy-cutoff  :      500.00
  volume of cell :      144.97
      direct lattice vectors                 reciprocal lattice vectors
     3.774806842  0.511155973  0.517760734     0.286164380 -0.066300220 -0.089472809
     1.809288378  7.058962125  0.555958253    -0.012009190  0.149468051 -0.060006699
     2.515497801  2.645172834  6.085316134    -0.023250735 -0.008014431  0.177424920

  length of vectors
     3.844284498  7.308321305  7.096177912     0.307068649  0.161510751  0.179121272


 FORCES acting on ions
    electron-ion (+dipol)            ewald-force                    non-local-force                 convergence-correction
 -----------------------------------------------------------------------------------------------
   -.161E+02 0.118E+03 0.241E+02   0.162E+02 -.124E+03 -.247E+02   -.871E-01 0.552E+01 0.437E+00   -.173E-02 -.811E-03 -.242E-02
   -.120E+03 0.599E+01 -.898E+02   0.144E+03 0.259E+01 0.104E+03   -.242E+02 -.868E+01 -.145E+02   0.132E-01 0.232E-01 -.134E-01
   -.508E+02 -.743E+02 -.124E+03   0.629E+02 0.882E+02 0.154E+03   -.120E+02 -.139E+02 -.294E+02   -.524E-02 0.749E-02 0.235E-01
   0.136E+03 0.358E+02 -.565E+02   -.164E+03 -.340E+02 0.634E+02   0.277E+02 -.177E+01 -.683E+01   -.315E-02 0.238E-02 -.165E-01
   0.493E+02 -.488E+02 0.252E+03   -.600E+02 0.497E+02 -.300E+03   0.108E+02 -.858E+00 0.478E+02   0.830E-02 -.189E-01 0.730E-02
   -.908E+00 -.195E+02 -.150E+01   0.712E+00 0.172E+02 0.307E+01   0.161E+00 0.240E+01 -.184E+01   -.130E-01 -.126E-01 -.332E-01
 -----------------------------------------------------------------------------------------------
   -.236E+01 0.173E+02 0.441E+01   0.362E-13 -.284E-13 0.000E+00   0.237E+01 -.173E+02 -.439E+01   -.162E-02 0.672E-03 -.346E-01
 
 
 POSITION                                       TOTAL-FORCE (eV/Angst)
 -----------------------------------------------------------------------------------
      3.98636      3.87491      1.65252        -0.017802     -0.001370     -0.134369
      2.47400      4.17953      2.55476        -0.063068     -0.070369     -0.007554
      6.67922      7.62616      6.36370         0.071823     -0.000133      0.250773
      5.06163      4.52706      2.90125         0.044741      0.002942      0.066749
      6.12921      7.57189      4.05945         0.013710      0.010180      0.127460
      6.38427      7.55172      5.18359        -0.049405      0.058750     -0.303059
 -----------------------------------------------------------------------------------
    total drift:                                0.006062     -0.004661     -0.015937


--------------------------------------------------------------------------------------------------------



  FREE ENERGIE OF THE ION-ELECTRON SYSTEM (eV)
  ---------------------------------------------------
  free  energy   TOTEN  =       -43.26052417 eV

  energy  without entropy=      -43.26052417  energy(sigma->0) =      -43.26052417
 
 d Force = 0.4991481E-05[-0.648E-04, 0.747E-04]  d Energy = 0.7693098E-04-0.719E-04
 d Force = 0.1156993E+00[ 0.115E+00, 0.116E+00]  d Ewald  = 0.3255999E-01 0.831E-01


--------------------------------------------------------------------------------------------------------


    POTLOK:  cpu time    0.0241: real time    0.0256


--------------------------------------------------------------------------------------------------------




--------------------------------------------------------------------------------------------------------


  
 reached required accuracy - stopping structural energy minimisation
     LOOP+:  cpu time   16.9790: real time   17.4608
 -----------------------------------------------------------------------------
|                                                                             |
|           W    W    AA    RRRRR   N    N  II  N    N   GGGG   !!!           |
|           W    W   A  A   R    R  NN   N  II  NN   N  G    G  !!!           |
|           W    W  A    A  R    R  N N  N  II  N N  N  G       !!!           |
|           W WW W  AAAAAA  RRRRR   N  N N  II  N  N N  G  GGG   !            |
|           WW  WW  A    A  R   R   N   NN  II  N   NN  G    G                |
|           W    W  A    A  R    R  N    N  II  N    N   GGGG   !!!           |
|                                                                             |
|     Tetrahedron method does not include variations of the Fermi             |
|     occupations, so forces and stress will be inaccurate. We suggest        |
|     using a different smearing scheme ISMEAR = 1 or 2 for metals in         |
|     relaxations.                                                            |
|                                                                             |
 -----------------------------------------------------------------------------

    4ORBIT:  cpu time    0.0000: real time    0.0000
 BZINTS: Fermi energy:   -0.677576;   29.000000 electrons
         Band energy:-0.300820E+03;  BLOECHL correction:   -0.016612

 total amount of memory used by VASP MPI-rank0   266260. kBytes
=======================================================================

   base      :      30000. kBytes
   nonl-proj :      63189. kBytes
   fftplans  :      10716. kBytes
   grid      :      19061. kBytes
   one-center:         18. kBytes
   wavefun   :     143276. kBytes
 
  
  
 General timing and accounting informations for this job:
 ========================================================
  
                  Total CPU time used (sec):      735.524
                            User time (sec):      675.716
                          System time (sec):       59.808
                         Elapsed time (sec):      774.435
  
                   Maximum memory used (kb):     1979312.
                   Average memory used (kb):          N/A
  
                          Minor page faults:      1457358
                          Major page faults:            0
                 Voluntary context switches:       505362
