<?xml version="1.0" encoding="ISO-8859-1"?>
<modeling>
 <generator>
  <i name="program" type="string">vasp </i>
  <i name="version" type="string">6.2.0  </i>
  <i name="subversion" type="string">18Jan21 (build Feb 25 2021 07:51:20) complex                          parallel </i>
  <i name="platform" type="string">LinuxPGI </i>
  <i name="date" type="string">2021 05 17 </i>
  <i name="time" type="string">20:05:21 </i>
 </generator>
 <incar>
  <i type="string" name="PREC">Normal</i>
  <i type="string" name="ALGO">Fast</i>
  <i type="int" name="IBRION">     2</i>
  <i name="EDIFF">      0.00010000</i>
  <i type="int" name="NSW">   100</i>
  <i type="int" name="ISIF">     3</i>
  <i name="ENCUT">    500.00000000</i>
  <i type="int" name="ISMEAR">    -5</i>
  <i name="SIGMA">      0.20000000</i>
  <i type="logical" name="LWAVE"> F  </i>
  <i type="logical" name="LCHARG"> F  </i>
 </incar>
 <primitive_cell>
  <structure name="primitive_cell" >
   <crystal>
    <varray name="basis" >
     <v>       3.81415977       0.45975899       0.52596968 </v>
     <v>       1.74635882       6.98328103       0.54080532 </v>
     <v>       2.54981160       2.58465075       5.92445574 </v>
    </varray>
    <i name="volume">    141.35440063 </i>
    <varray name="rec_basis" >
     <v>       0.28279520      -0.06343824      -0.09403544 </v>
     <v>      -0.00965215       0.15037167      -0.06144819 </v>
     <v>      -0.02422531      -0.00809445       0.18274950 </v>
    </varray>
   </crystal>
   <varray name="positions" >
    <v>       0.74971587       0.41737237       0.16771358 </v>
    <v>       0.20165105       0.45682142       0.35591362 </v>
    <v>       0.81550360       0.67771011       0.92395395 </v>
    <v>       0.89020522       0.45997811       0.35554743 </v>
    <v>       0.89927282       0.80219381       0.51482552 </v>
    <v>       0.85823043       0.73489517       0.71500190 </v>
   </varray>
  </structure>
  <varray name="primitive_index" >
   <v type="int" >        1 </v>
   <v type="int" >        2 </v>
   <v type="int" >        3 </v>
   <v type="int" >        4 </v>
   <v type="int" >        5 </v>
   <v type="int" >        6 </v>
  </varray>
 </primitive_cell>
 <kpoints>
  <generation param="Auto">
   <i name="subdivisionlength">     30.00000000 </i>
   <v type="int" name="divisions">       9        5        6 </v>
   <v name="usershift">      0.00000000       0.00000000       0.00000000 </v>
   <v name="genvec1">      0.11111111      -0.00000000       0.00000000 </v>
   <v name="genvec2">      0.00000000       0.20000000      -0.00000000 </v>
   <v name="genvec3">      0.00000000      -0.00000000       0.16666667 </v>
   <v name="shift">      0.00000000       0.00000000       0.00000000 </v>
  </generation>
  <varray name="kpointlist" >
   <v>       0.00000000       0.00000000       0.00000000 </v>
   <v>       0.11111111       0.00000000       0.00000000 </v>
   <v>       0.22222222       0.00000000       0.00000000 </v>
   <v>       0.33333333       0.00000000       0.00000000 </v>
   <v>       0.44444444       0.00000000       0.00000000 </v>
   <v>       0.00000000       0.20000000       0.00000000 </v>
   <v>       0.11111111       0.20000000       0.00000000 </v>
   <v>       0.22222222       0.20000000       0.00000000 </v>
   <v>       0.33333333       0.20000000       0.00000000 </v>
   <v>       0.44444444       0.20000000       0.00000000 </v>
   <v>      -0.44444444       0.20000000       0.00000000 </v>
   <v>      -0.33333333       0.20000000       0.00000000 </v>
   <v>      -0.22222222       0.20000000       0.00000000 </v>
   <v>      -0.11111111       0.20000000       0.00000000 </v>
   <v>       0.00000000       0.40000000       0.00000000 </v>
   <v>       0.11111111       0.40000000       0.00000000 </v>
   <v>       0.22222222       0.40000000       0.00000000 </v>
   <v>       0.33333333       0.40000000       0.00000000 </v>
   <v>       0.44444444       0.40000000       0.00000000 </v>
   <v>      -0.44444444       0.40000000       0.00000000 </v>
   <v>      -0.33333333       0.40000000       0.00000000 </v>
   <v>      -0.22222222       0.40000000       0.00000000 </v>
   <v>      -0.11111111       0.40000000       0.00000000 </v>
   <v>       0.00000000       0.00000000       0.16666667 </v>
   <v>       0.11111111       0.00000000       0.16666667 </v>
   <v>       0.22222222       0.00000000       0.16666667 </v>
   <v>       0.33333333       0.00000000       0.16666667 </v>
   <v>       0.44444444       0.00000000       0.16666667 </v>
   <v>      -0.44444444       0.00000000       0.16666667 </v>
   <v>      -0.33333333       0.00000000       0.16666667 </v>
   <v>      -0.22222222       0.00000000       0.16666667 </v>
   <v>      -0.11111111       0.00000000       0.16666667 </v>
   <v>       0.00000000       0.20000000       0.16666667 </v>
   <v>       0.11111111       0.20000000       0.16666667 </v>
   <v>       0.22222222       0.20000000       0.16666667 </v>
   <v>       0.33333333       0.20000000       0.16666667 </v>
   <v>       0.44444444       0.20000000       0.16666667 </v>
   <v>      -0.44444444       0.20000000       0.16666667 </v>
   <v>      -0.33333333       0.20000000       0.16666667 </v>
   <v>      -0.22222222       0.20000000       0.16666667 </v>
   <v>      -0.11111111       0.20000000       0.16666667 </v>
   <v>       0.00000000       0.40000000       0.16666667 </v>
   <v>       0.11111111       0.40000000       0.16666667 </v>
   <v>       0.22222222       0.40000000       0.16666667 </v>
   <v>       0.33333333       0.40000000       0.16666667 </v>
   <v>       0.44444444       0.40000000       0.16666667 </v>
   <v>      -0.44444444       0.40000000       0.16666667 </v>
   <v>      -0.33333333       0.40000000       0.16666667 </v>
   <v>      -0.22222222       0.40000000       0.16666667 </v>
   <v>      -0.11111111       0.40000000       0.16666667 </v>
   <v>       0.00000000      -0.40000000       0.16666667 </v>
   <v>       0.11111111      -0.40000000       0.16666667 </v>
   <v>       0.22222222      -0.40000000       0.16666667 </v>
   <v>       0.33333333      -0.40000000       0.16666667 </v>
   <v>       0.44444444      -0.40000000       0.16666667 </v>
   <v>      -0.44444444      -0.40000000       0.16666667 </v>
   <v>      -0.33333333      -0.40000000       0.16666667 </v>
   <v>      -0.22222222      -0.40000000       0.16666667 </v>
   <v>      -0.11111111      -0.40000000       0.16666667 </v>
   <v>       0.00000000      -0.20000000       0.16666667 </v>
   <v>       0.11111111      -0.20000000       0.16666667 </v>
   <v>       0.22222222      -0.20000000       0.16666667 </v>
   <v>       0.33333333      -0.20000000       0.16666667 </v>
   <v>       0.44444444      -0.20000000       0.16666667 </v>
   <v>      -0.44444444      -0.20000000       0.16666667 </v>
   <v>      -0.33333333      -0.20000000       0.16666667 </v>
   <v>      -0.22222222      -0.20000000       0.16666667 </v>
   <v>      -0.11111111      -0.20000000       0.16666667 </v>
   <v>       0.00000000       0.00000000       0.33333333 </v>
   <v>       0.11111111       0.00000000       0.33333333 </v>
   <v>       0.22222222       0.00000000       0.33333333 </v>
   <v>       0.33333333       0.00000000       0.33333333 </v>
   <v>       0.44444444       0.00000000       0.33333333 </v>
   <v>      -0.44444444       0.00000000       0.33333333 </v>
   <v>      -0.33333333       0.00000000       0.33333333 </v>
   <v>      -0.22222222       0.00000000       0.33333333 </v>
   <v>      -0.11111111       0.00000000       0.33333333 </v>
   <v>       0.00000000       0.20000000       0.33333333 </v>
   <v>       0.11111111       0.20000000       0.33333333 </v>
   <v>       0.22222222       0.20000000       0.33333333 </v>
   <v>       0.33333333       0.20000000       0.33333333 </v>
   <v>       0.44444444       0.20000000       0.33333333 </v>
   <v>      -0.44444444       0.20000000       0.33333333 </v>
   <v>      -0.33333333       0.20000000       0.33333333 </v>
   <v>      -0.22222222       0.20000000       0.33333333 </v>
   <v>      -0.11111111       0.20000000       0.33333333 </v>
   <v>       0.00000000       0.40000000       0.33333333 </v>
   <v>       0.11111111       0.40000000       0.33333333 </v>
   <v>       0.22222222       0.40000000       0.33333333 </v>
   <v>       0.33333333       0.40000000       0.33333333 </v>
   <v>       0.44444444       0.40000000       0.33333333 </v>
   <v>      -0.44444444       0.40000000       0.33333333 </v>
   <v>      -0.33333333       0.40000000       0.33333333 </v>
   <v>      -0.22222222       0.40000000       0.33333333 </v>
   <v>      -0.11111111       0.40000000       0.33333333 </v>
   <v>       0.00000000      -0.40000000       0.33333333 </v>
   <v>       0.11111111      -0.40000000       0.33333333 </v>
   <v>       0.22222222      -0.40000000       0.33333333 </v>
   <v>       0.33333333      -0.40000000       0.33333333 </v>
   <v>       0.44444444      -0.40000000       0.33333333 </v>
   <v>      -0.44444444      -0.40000000       0.33333333 </v>
   <v>      -0.33333333      -0.40000000       0.33333333 </v>
   <v>      -0.22222222      -0.40000000       0.33333333 </v>
   <v>      -0.11111111      -0.40000000       0.33333333 </v>
   <v>       0.00000000      -0.20000000       0.33333333 </v>
   <v>       0.11111111      -0.20000000       0.33333333 </v>
   <v>       0.22222222      -0.20000000       0.33333333 </v>
   <v>       0.33333333      -0.20000000       0.33333333 </v>
   <v>       0.44444444      -0.20000000       0.33333333 </v>
   <v>      -0.44444444      -0.20000000       0.33333333 </v>
   <v>      -0.33333333      -0.20000000       0.33333333 </v>
   <v>      -0.22222222      -0.20000000       0.33333333 </v>
   <v>      -0.11111111      -0.20000000       0.33333333 </v>
   <v>       0.00000000       0.00000000       0.50000000 </v>
   <v>       0.11111111       0.00000000       0.50000000 </v>
   <v>       0.22222222       0.00000000       0.50000000 </v>
   <v>       0.33333333       0.00000000       0.50000000 </v>
   <v>       0.44444444       0.00000000       0.50000000 </v>
   <v>       0.00000000       0.20000000       0.50000000 </v>
   <v>       0.11111111       0.20000000       0.50000000 </v>
   <v>       0.22222222       0.20000000       0.50000000 </v>
   <v>       0.33333333       0.20000000       0.50000000 </v>
   <v>       0.44444444       0.20000000       0.50000000 </v>
   <v>      -0.44444444       0.20000000       0.50000000 </v>
   <v>      -0.33333333       0.20000000       0.50000000 </v>
   <v>      -0.22222222       0.20000000       0.50000000 </v>
   <v>      -0.11111111       0.20000000       0.50000000 </v>
   <v>       0.00000000       0.40000000       0.50000000 </v>
   <v>       0.11111111       0.40000000       0.50000000 </v>
   <v>       0.22222222       0.40000000       0.50000000 </v>
   <v>       0.33333333       0.40000000       0.50000000 </v>
   <v>       0.44444444       0.40000000       0.50000000 </v>
   <v>      -0.44444444       0.40000000       0.50000000 </v>
   <v>      -0.33333333       0.40000000       0.50000000 </v>
   <v>      -0.22222222       0.40000000       0.50000000 </v>
   <v>      -0.11111111       0.40000000       0.50000000 </v>
  </varray>
  <varray name="weights" >
   <v>       0.00370370 </v>
   <v>       0.00740741 </v>
   <v>       0.00740741 </v>
   <v>       0.00740741 </v>
   <v>       0.00740741 </v>
   <v>       0.00740741 </v>
   <v>       0.00740741 </v>
   <v>       0.00740741 </v>
   <v>       0.00740741 </v>
   <v>       0.00740741 </v>
   <v>       0.00740741 </v>
   <v>       0.00740741 </v>
   <v>       0.00740741 </v>
   <v>       0.00740741 </v>
   <v>       0.00740741 </v>
   <v>       0.00740741 </v>
   <v>       0.00740741 </v>
   <v>       0.00740741 </v>
   <v>       0.00740741 </v>
   <v>       0.00740741 </v>
   <v>       0.00740741 </v>
   <v>       0.00740741 </v>
   <v>       0.00740741 </v>
   <v>       0.00740741 </v>
   <v>       0.00740741 </v>
   <v>       0.00740741 </v>
   <v>       0.00740741 </v>
   <v>       0.00740741 </v>
   <v>       0.00740741 </v>
   <v>       0.00740741 </v>
   <v>       0.00740741 </v>
   <v>       0.00740741 </v>
   <v>       0.00740741 </v>
   <v>       0.00740741 </v>
   <v>       0.00740741 </v>
   <v>       0.00740741 </v>
   <v>       0.00740741 </v>
   <v>       0.00740741 </v>
   <v>       0.00740741 </v>
   <v>       0.00740741 </v>
   <v>       0.00740741 </v>
   <v>       0.00740741 </v>
   <v>       0.00740741 </v>
   <v>       0.00740741 </v>
   <v>       0.00740741 </v>
   <v>       0.00740741 </v>
   <v>       0.00740741 </v>
   <v>       0.00740741 </v>
   <v>       0.00740741 </v>
   <v>       0.00740741 </v>
   <v>       0.00740741 </v>
   <v>       0.00740741 </v>
   <v>       0.00740741 </v>
   <v>       0.00740741 </v>
   <v>       0.00740741 </v>
   <v>       0.00740741 </v>
   <v>       0.00740741 </v>
   <v>       0.00740741 </v>
   <v>       0.00740741 </v>
   <v>       0.00740741 </v>
   <v>       0.00740741 </v>
   <v>       0.00740741 </v>
   <v>       0.00740741 </v>
   <v>       0.00740741 </v>
   <v>       0.00740741 </v>
   <v>       0.00740741 </v>
   <v>       0.00740741 </v>
   <v>       0.00740741 </v>
   <v>       0.00740741 </v>
   <v>       0.00740741 </v>
   <v>       0.00740741 </v>
   <v>       0.00740741 </v>
   <v>       0.00740741 </v>
   <v>       0.00740741 </v>
   <v>       0.00740741 </v>
   <v>       0.00740741 </v>
   <v>       0.00740741 </v>
   <v>       0.00740741 </v>
   <v>       0.00740741 </v>
   <v>       0.00740741 </v>
   <v>       0.00740741 </v>
   <v>       0.00740741 </v>
   <v>       0.00740741 </v>
   <v>       0.00740741 </v>
   <v>       0.00740741 </v>
   <v>       0.00740741 </v>
   <v>       0.00740741 </v>
   <v>       0.00740741 </v>
   <v>       0.00740741 </v>
   <v>       0.00740741 </v>
   <v>       0.00740741 </v>
   <v>       0.00740741 </v>
   <v>       0.00740741 </v>
   <v>       0.00740741 </v>
   <v>       0.00740741 </v>
   <v>       0.00740741 </v>
   <v>       0.00740741 </v>
   <v>       0.00740741 </v>
   <v>       0.00740741 </v>
   <v>       0.00740741 </v>
   <v>       0.00740741 </v>
   <v>       0.00740741 </v>
   <v>       0.00740741 </v>
   <v>       0.00740741 </v>
   <v>       0.00740741 </v>
   <v>       0.00740741 </v>
   <v>       0.00740741 </v>
   <v>       0.00740741 </v>
   <v>       0.00740741 </v>
   <v>       0.00740741 </v>
   <v>       0.00740741 </v>
   <v>       0.00740741 </v>
   <v>       0.00740741 </v>
   <v>       0.00370370 </v>
   <v>       0.00740741 </v>
   <v>       0.00740741 </v>
   <v>       0.00740741 </v>
   <v>       0.00740741 </v>
   <v>       0.00740741 </v>
   <v>       0.00740741 </v>
   <v>       0.00740741 </v>
   <v>       0.00740741 </v>
   <v>       0.00740741 </v>
   <v>       0.00740741 </v>
   <v>       0.00740741 </v>
   <v>       0.00740741 </v>
   <v>       0.00740741 </v>
   <v>       0.00740741 </v>
   <v>       0.00740741 </v>
   <v>       0.00740741 </v>
   <v>       0.00740741 </v>
   <v>       0.00740741 </v>
   <v>       0.00740741 </v>
   <v>       0.00740741 </v>
   <v>       0.00740741 </v>
   <v>       0.00740741 </v>
  </varray>
  <varray name="tetrahedronlist"  type="int" >
   <v type="int" >        2        1        6        7       34 </v>
   <v type="int" >        2        1        2        7       34 </v>
   <v type="int" >        2        1        2       25       34 </v>
   <v type="int" >        2        1        6       33       34 </v>
   <v type="int" >        2        1       24       33       34 </v>
   <v type="int" >        2        1       24       25       34 </v>
   <v type="int" >        2        2        7        8       35 </v>
   <v type="int" >        2        2        3        8       35 </v>
   <v type="int" >        2        2        3       26       35 </v>
   <v type="int" >        2        2        7       34       35 </v>
   <v type="int" >        2        2       25       34       35 </v>
   <v type="int" >        2        2       25       26       35 </v>
   <v type="int" >        2        3        8        9       36 </v>
   <v type="int" >        2        3        4        9       36 </v>
   <v type="int" >        2        3        4       27       36 </v>
   <v type="int" >        2        3        8       35       36 </v>
   <v type="int" >        2        3       26       35       36 </v>
   <v type="int" >        2        3       26       27       36 </v>
   <v type="int" >        2        4        9       10       37 </v>
   <v type="int" >        2        4        5       10       37 </v>
   <v type="int" >        2        4        5       28       37 </v>
   <v type="int" >        2        4        9       36       37 </v>
   <v type="int" >        2        4       27       36       37 </v>
   <v type="int" >        2        4       27       28       37 </v>
   <v type="int" >        2        5       10       11       38 </v>
   <v type="int" >        2        5        5       11       38 </v>
   <v type="int" >        2        5        5       29       38 </v>
   <v type="int" >        2        5       10       37       38 </v>
   <v type="int" >        2        5       28       37       38 </v>
   <v type="int" >        2        5       28       29       38 </v>
   <v type="int" >        2        5       11       12       39 </v>
   <v type="int" >        2        4        5       12       39 </v>
   <v type="int" >        2        4        5       30       39 </v>
   <v type="int" >        2        5       11       38       39 </v>
   <v type="int" >        2        5       29       38       39 </v>
   <v type="int" >        2        5       29       30       39 </v>
   <v type="int" >        2        4       12       13       40 </v>
   <v type="int" >        2        3        4       13       40 </v>
   <v type="int" >        2        3        4       31       40 </v>
   <v type="int" >        2        4       12       39       40 </v>
   <v type="int" >        2        4       30       39       40 </v>
   <v type="int" >        2        4       30       31       40 </v>
   <v type="int" >        2        3       13       14       41 </v>
   <v type="int" >        2        2        3       14       41 </v>
   <v type="int" >        2        2        3       32       41 </v>
   <v type="int" >        2        3       13       40       41 </v>
   <v type="int" >        2        3       31       40       41 </v>
   <v type="int" >        2        3       31       32       41 </v>
   <v type="int" >        2        2        6       14       33 </v>
   <v type="int" >        2        1        2        6       33 </v>
   <v type="int" >        2        1        2       24       33 </v>
   <v type="int" >        2        2       14       33       41 </v>
   <v type="int" >        2        2       32       33       41 </v>
   <v type="int" >        2        2       24       32       33 </v>
   <v type="int" >        2        6       15       16       43 </v>
   <v type="int" >        2        6        7       16       43 </v>
   <v type="int" >        2        6        7       34       43 </v>
   <v type="int" >        2        6       15       42       43 </v>
   <v type="int" >        2        6       33       42       43 </v>
   <v type="int" >        2        6       33       34       43 </v>
   <v type="int" >        2        7       16       17       44 </v>
   <v type="int" >        2        7        8       17       44 </v>
   <v type="int" >        2        7        8       35       44 </v>
   <v type="int" >        2        7       16       43       44 </v>
   <v type="int" >        2        7       34       43       44 </v>
   <v type="int" >        2        7       34       35       44 </v>
   <v type="int" >        2        8       17       18       45 </v>
   <v type="int" >        2        8        9       18       45 </v>
   <v type="int" >        2        8        9       36       45 </v>
   <v type="int" >        2        8       17       44       45 </v>
   <v type="int" >        2        8       35       44       45 </v>
   <v type="int" >        2        8       35       36       45 </v>
   <v type="int" >        2        9       18       19       46 </v>
   <v type="int" >        2        9       10       19       46 </v>
   <v type="int" >        2        9       10       37       46 </v>
   <v type="int" >        2        9       18       45       46 </v>
   <v type="int" >        2        9       36       45       46 </v>
   <v type="int" >        2        9       36       37       46 </v>
   <v type="int" >        2       10       19       20       47 </v>
   <v type="int" >        2       10       11       20       47 </v>
   <v type="int" >        2       10       11       38       47 </v>
   <v type="int" >        2       10       19       46       47 </v>
   <v type="int" >        2       10       37       46       47 </v>
   <v type="int" >        2       10       37       38       47 </v>
   <v type="int" >        2       11       20       21       48 </v>
   <v type="int" >        2       11       12       21       48 </v>
   <v type="int" >        2       11       12       39       48 </v>
   <v type="int" >        2       11       20       47       48 </v>
   <v type="int" >        2       11       38       47       48 </v>
   <v type="int" >        2       11       38       39       48 </v>
   <v type="int" >        2       12       21       22       49 </v>
   <v type="int" >        2       12       13       22       49 </v>
   <v type="int" >        2       12       13       40       49 </v>
   <v type="int" >        2       12       21       48       49 </v>
   <v type="int" >        2       12       39       48       49 </v>
   <v type="int" >        2       12       39       40       49 </v>
   <v type="int" >        2       13       22       23       50 </v>
   <v type="int" >        2       13       14       23       50 </v>
   <v type="int" >        2       13       14       41       50 </v>
   <v type="int" >        2       13       22       49       50 </v>
   <v type="int" >        2       13       40       49       50 </v>
   <v type="int" >        2       13       40       41       50 </v>
   <v type="int" >        2       14       15       23       42 </v>
   <v type="int" >        2        6       14       15       42 </v>
   <v type="int" >        2        6       14       33       42 </v>
   <v type="int" >        2       14       23       42       50 </v>
   <v type="int" >        2       14       41       42       50 </v>
   <v type="int" >        2       14       33       41       42 </v>
   <v type="int" >        2       15       15       23       52 </v>
   <v type="int" >        2       15       16       23       52 </v>
   <v type="int" >        2       15       16       43       52 </v>
   <v type="int" >        2       15       15       51       52 </v>
   <v type="int" >        2       15       42       51       52 </v>
   <v type="int" >        2       15       42       43       52 </v>
   <v type="int" >        2       16       22       23       53 </v>
   <v type="int" >        2       16       17       22       53 </v>
   <v type="int" >        2       16       17       44       53 </v>
   <v type="int" >        2       16       23       52       53 </v>
   <v type="int" >        2       16       43       52       53 </v>
   <v type="int" >        2       16       43       44       53 </v>
   <v type="int" >        2       17       21       22       54 </v>
   <v type="int" >        2       17       18       21       54 </v>
   <v type="int" >        2       17       18       45       54 </v>
   <v type="int" >        2       17       22       53       54 </v>
   <v type="int" >        2       17       44       53       54 </v>
   <v type="int" >        2       17       44       45       54 </v>
   <v type="int" >        2       18       20       21       55 </v>
   <v type="int" >        2       18       19       20       55 </v>
   <v type="int" >        2       18       19       46       55 </v>
   <v type="int" >        2       18       21       54       55 </v>
   <v type="int" >        2       18       45       54       55 </v>
   <v type="int" >        2       18       45       46       55 </v>
   <v type="int" >        4       19       19       20       56 </v>
   <v type="int" >        2       19       20       47       56 </v>
   <v type="int" >        2       19       20       55       56 </v>
   <v type="int" >        2       19       46       55       56 </v>
   <v type="int" >        2       19       46       47       56 </v>
   <v type="int" >        2       18       19       20       57 </v>
   <v type="int" >        2       18       20       21       57 </v>
   <v type="int" >        2       20       21       48       57 </v>
   <v type="int" >        2       19       20       56       57 </v>
   <v type="int" >        2       20       47       56       57 </v>
   <v type="int" >        2       20       47       48       57 </v>
   <v type="int" >        2       17       18       21       58 </v>
   <v type="int" >        2       17       21       22       58 </v>
   <v type="int" >        2       21       22       49       58 </v>
   <v type="int" >        2       18       21       57       58 </v>
   <v type="int" >        2       21       48       57       58 </v>
   <v type="int" >        2       21       48       49       58 </v>
   <v type="int" >        2       16       17       22       59 </v>
   <v type="int" >        2       16       22       23       59 </v>
   <v type="int" >        2       22       23       50       59 </v>
   <v type="int" >        2       17       22       58       59 </v>
   <v type="int" >        2       22       49       58       59 </v>
   <v type="int" >        2       22       49       50       59 </v>
   <v type="int" >        2       15       16       23       51 </v>
   <v type="int" >        2       15       15       23       51 </v>
   <v type="int" >        2       15       23       42       51 </v>
   <v type="int" >        2       16       23       51       59 </v>
   <v type="int" >        2       23       50       51       59 </v>
   <v type="int" >        2       23       42       50       51 </v>
   <v type="int" >        2        6       14       15       61 </v>
   <v type="int" >        2       14       15       23       61 </v>
   <v type="int" >        2       15       23       52       61 </v>
   <v type="int" >        2        6       15       60       61 </v>
   <v type="int" >        2       15       51       60       61 </v>
   <v type="int" >        2       15       51       52       61 </v>
   <v type="int" >        2       13       14       23       62 </v>
   <v type="int" >        2       13       22       23       62 </v>
   <v type="int" >        2       22       23       53       62 </v>
   <v type="int" >        2       14       23       61       62 </v>
   <v type="int" >        2       23       52       61       62 </v>
   <v type="int" >        2       23       52       53       62 </v>
   <v type="int" >        2       12       13       22       63 </v>
   <v type="int" >        2       12       21       22       63 </v>
   <v type="int" >        2       21       22       54       63 </v>
   <v type="int" >        2       13       22       62       63 </v>
   <v type="int" >        2       22       53       62       63 </v>
   <v type="int" >        2       22       53       54       63 </v>
   <v type="int" >        2       11       12       21       64 </v>
   <v type="int" >        2       11       20       21       64 </v>
   <v type="int" >        2       20       21       55       64 </v>
   <v type="int" >        2       12       21       63       64 </v>
   <v type="int" >        2       21       54       63       64 </v>
   <v type="int" >        2       21       54       55       64 </v>
   <v type="int" >        2       10       11       20       65 </v>
   <v type="int" >        2       10       19       20       65 </v>
   <v type="int" >        2       19       20       56       65 </v>
   <v type="int" >        2       11       20       64       65 </v>
   <v type="int" >        2       20       55       64       65 </v>
   <v type="int" >        2       20       55       56       65 </v>
   <v type="int" >        2        9       10       19       66 </v>
   <v type="int" >        2        9       18       19       66 </v>
   <v type="int" >        2       18       19       57       66 </v>
   <v type="int" >        2       10       19       65       66 </v>
   <v type="int" >        2       19       56       65       66 </v>
   <v type="int" >        2       19       56       57       66 </v>
   <v type="int" >        2        8        9       18       67 </v>
   <v type="int" >        2        8       17       18       67 </v>
   <v type="int" >        2       17       18       58       67 </v>
   <v type="int" >        2        9       18       66       67 </v>
   <v type="int" >        2       18       57       66       67 </v>
   <v type="int" >        2       18       57       58       67 </v>
   <v type="int" >        2        7        8       17       68 </v>
   <v type="int" >        2        7       16       17       68 </v>
   <v type="int" >        2       16       17       59       68 </v>
   <v type="int" >        2        8       17       67       68 </v>
   <v type="int" >        2       17       58       67       68 </v>
   <v type="int" >        2       17       58       59       68 </v>
   <v type="int" >        2        6        7       16       60 </v>
   <v type="int" >        2        6       15       16       60 </v>
   <v type="int" >        2       15       16       51       60 </v>
   <v type="int" >        2        7       16       60       68 </v>
   <v type="int" >        2       16       59       60       68 </v>
   <v type="int" >        2       16       51       59       60 </v>
   <v type="int" >        2        1        2        6       25 </v>
   <v type="int" >        2        2        6       14       25 </v>
   <v type="int" >        2        6       14       25       61 </v>
   <v type="int" >        2        1        6       24       25 </v>
   <v type="int" >        2        6       24       25       60 </v>
   <v type="int" >        2        6       25       60       61 </v>
   <v type="int" >        2        2        3       14       26 </v>
   <v type="int" >        2        3       13       14       26 </v>
   <v type="int" >        2       13       14       26       62 </v>
   <v type="int" >        2        2       14       25       26 </v>
   <v type="int" >        2       14       25       26       61 </v>
   <v type="int" >        2       14       26       61       62 </v>
   <v type="int" >        2        3        4       13       27 </v>
   <v type="int" >        2        4       12       13       27 </v>
   <v type="int" >        2       12       13       27       63 </v>
   <v type="int" >        2        3       13       26       27 </v>
   <v type="int" >        2       13       26       27       62 </v>
   <v type="int" >        2       13       27       62       63 </v>
   <v type="int" >        2        4        5       12       28 </v>
   <v type="int" >        2        5       11       12       28 </v>
   <v type="int" >        2       11       12       28       64 </v>
   <v type="int" >        2        4       12       27       28 </v>
   <v type="int" >        2       12       27       28       63 </v>
   <v type="int" >        2       12       28       63       64 </v>
   <v type="int" >        2        5        5       11       29 </v>
   <v type="int" >        2        5       10       11       29 </v>
   <v type="int" >        2       10       11       29       65 </v>
   <v type="int" >        2        5       11       28       29 </v>
   <v type="int" >        2       11       28       29       64 </v>
   <v type="int" >        2       11       29       64       65 </v>
   <v type="int" >        2        4        5       10       30 </v>
   <v type="int" >        2        4        9       10       30 </v>
   <v type="int" >        2        9       10       30       66 </v>
   <v type="int" >        2        5       10       29       30 </v>
   <v type="int" >        2       10       29       30       65 </v>
   <v type="int" >        2       10       30       65       66 </v>
   <v type="int" >        2        3        4        9       31 </v>
   <v type="int" >        2        3        8        9       31 </v>
   <v type="int" >        2        8        9       31       67 </v>
   <v type="int" >        2        4        9       30       31 </v>
   <v type="int" >        2        9       30       31       66 </v>
   <v type="int" >        2        9       31       66       67 </v>
   <v type="int" >        2        2        3        8       32 </v>
   <v type="int" >        2        2        7        8       32 </v>
   <v type="int" >        2        7        8       32       68 </v>
   <v type="int" >        2        3        8       31       32 </v>
   <v type="int" >        2        8       31       32       67 </v>
   <v type="int" >        2        8       32       67       68 </v>
   <v type="int" >        2        1        2        7       24 </v>
   <v type="int" >        2        1        6        7       24 </v>
   <v type="int" >        2        6        7       24       60 </v>
   <v type="int" >        2        2        7       24       32 </v>
   <v type="int" >        2        7       24       32       68 </v>
   <v type="int" >        2        7       24       60       68 </v>
   <v type="int" >        2       24       33       34       79 </v>
   <v type="int" >        2       24       25       34       79 </v>
   <v type="int" >        2       24       25       70       79 </v>
   <v type="int" >        2       24       33       78       79 </v>
   <v type="int" >        2       24       69       78       79 </v>
   <v type="int" >        2       24       69       70       79 </v>
   <v type="int" >        2       25       34       35       80 </v>
   <v type="int" >        2       25       26       35       80 </v>
   <v type="int" >        2       25       26       71       80 </v>
   <v type="int" >        2       25       34       79       80 </v>
   <v type="int" >        2       25       70       79       80 </v>
   <v type="int" >        2       25       70       71       80 </v>
   <v type="int" >        2       26       35       36       81 </v>
   <v type="int" >        2       26       27       36       81 </v>
   <v type="int" >        2       26       27       72       81 </v>
   <v type="int" >        2       26       35       80       81 </v>
   <v type="int" >        2       26       71       80       81 </v>
   <v type="int" >        2       26       71       72       81 </v>
   <v type="int" >        2       27       36       37       82 </v>
   <v type="int" >        2       27       28       37       82 </v>
   <v type="int" >        2       27       28       73       82 </v>
   <v type="int" >        2       27       36       81       82 </v>
   <v type="int" >        2       27       72       81       82 </v>
   <v type="int" >        2       27       72       73       82 </v>
   <v type="int" >        2       28       37       38       83 </v>
   <v type="int" >        2       28       29       38       83 </v>
   <v type="int" >        2       28       29       74       83 </v>
   <v type="int" >        2       28       37       82       83 </v>
   <v type="int" >        2       28       73       82       83 </v>
   <v type="int" >        2       28       73       74       83 </v>
   <v type="int" >        2       29       38       39       84 </v>
   <v type="int" >        2       29       30       39       84 </v>
   <v type="int" >        2       29       30       75       84 </v>
   <v type="int" >        2       29       38       83       84 </v>
   <v type="int" >        2       29       74       83       84 </v>
   <v type="int" >        2       29       74       75       84 </v>
   <v type="int" >        2       30       39       40       85 </v>
   <v type="int" >        2       30       31       40       85 </v>
   <v type="int" >        2       30       31       76       85 </v>
   <v type="int" >        2       30       39       84       85 </v>
   <v type="int" >        2       30       75       84       85 </v>
   <v type="int" >        2       30       75       76       85 </v>
   <v type="int" >        2       31       40       41       86 </v>
   <v type="int" >        2       31       32       41       86 </v>
   <v type="int" >        2       31       32       77       86 </v>
   <v type="int" >        2       31       40       85       86 </v>
   <v type="int" >        2       31       76       85       86 </v>
   <v type="int" >        2       31       76       77       86 </v>
   <v type="int" >        2       32       33       41       78 </v>
   <v type="int" >        2       24       32       33       78 </v>
   <v type="int" >        2       24       32       69       78 </v>
   <v type="int" >        2       32       41       78       86 </v>
   <v type="int" >        2       32       77       78       86 </v>
   <v type="int" >        2       32       69       77       78 </v>
   <v type="int" >        2       33       42       43       88 </v>
   <v type="int" >        2       33       34       43       88 </v>
   <v type="int" >        2       33       34       79       88 </v>
   <v type="int" >        2       33       42       87       88 </v>
   <v type="int" >        2       33       78       87       88 </v>
   <v type="int" >        2       33       78       79       88 </v>
   <v type="int" >        2       34       43       44       89 </v>
   <v type="int" >        2       34       35       44       89 </v>
   <v type="int" >        2       34       35       80       89 </v>
   <v type="int" >        2       34       43       88       89 </v>
   <v type="int" >        2       34       79       88       89 </v>
   <v type="int" >        2       34       79       80       89 </v>
   <v type="int" >        2       35       44       45       90 </v>
   <v type="int" >        2       35       36       45       90 </v>
   <v type="int" >        2       35       36       81       90 </v>
   <v type="int" >        2       35       44       89       90 </v>
   <v type="int" >        2       35       80       89       90 </v>
   <v type="int" >        2       35       80       81       90 </v>
   <v type="int" >        2       36       45       46       91 </v>
   <v type="int" >        2       36       37       46       91 </v>
   <v type="int" >        2       36       37       82       91 </v>
   <v type="int" >        2       36       45       90       91 </v>
   <v type="int" >        2       36       81       90       91 </v>
   <v type="int" >        2       36       81       82       91 </v>
   <v type="int" >        2       37       46       47       92 </v>
   <v type="int" >        2       37       38       47       92 </v>
   <v type="int" >        2       37       38       83       92 </v>
   <v type="int" >        2       37       46       91       92 </v>
   <v type="int" >        2       37       82       91       92 </v>
   <v type="int" >        2       37       82       83       92 </v>
   <v type="int" >        2       38       47       48       93 </v>
   <v type="int" >        2       38       39       48       93 </v>
   <v type="int" >        2       38       39       84       93 </v>
   <v type="int" >        2       38       47       92       93 </v>
   <v type="int" >        2       38       83       92       93 </v>
   <v type="int" >        2       38       83       84       93 </v>
   <v type="int" >        2       39       48       49       94 </v>
   <v type="int" >        2       39       40       49       94 </v>
   <v type="int" >        2       39       40       85       94 </v>
   <v type="int" >        2       39       48       93       94 </v>
   <v type="int" >        2       39       84       93       94 </v>
   <v type="int" >        2       39       84       85       94 </v>
   <v type="int" >        2       40       49       50       95 </v>
   <v type="int" >        2       40       41       50       95 </v>
   <v type="int" >        2       40       41       86       95 </v>
   <v type="int" >        2       40       49       94       95 </v>
   <v type="int" >        2       40       85       94       95 </v>
   <v type="int" >        2       40       85       86       95 </v>
   <v type="int" >        2       41       42       50       87 </v>
   <v type="int" >        2       33       41       42       87 </v>
   <v type="int" >        2       33       41       78       87 </v>
   <v type="int" >        2       41       50       87       95 </v>
   <v type="int" >        2       41       86       87       95 </v>
   <v type="int" >        2       41       78       86       87 </v>
   <v type="int" >        2       42       51       52       97 </v>
   <v type="int" >        2       42       43       52       97 </v>
   <v type="int" >        2       42       43       88       97 </v>
   <v type="int" >        2       42       51       96       97 </v>
   <v type="int" >        2       42       87       96       97 </v>
   <v type="int" >        2       42       87       88       97 </v>
   <v type="int" >        2       43       52       53       98 </v>
   <v type="int" >        2       43       44       53       98 </v>
   <v type="int" >        2       43       44       89       98 </v>
   <v type="int" >        2       43       52       97       98 </v>
   <v type="int" >        2       43       88       97       98 </v>
   <v type="int" >        2       43       88       89       98 </v>
   <v type="int" >        2       44       53       54       99 </v>
   <v type="int" >        2       44       45       54       99 </v>
   <v type="int" >        2       44       45       90       99 </v>
   <v type="int" >        2       44       53       98       99 </v>
   <v type="int" >        2       44       89       98       99 </v>
   <v type="int" >        2       44       89       90       99 </v>
   <v type="int" >        2       45       54       55      100 </v>
   <v type="int" >        2       45       46       55      100 </v>
   <v type="int" >        2       45       46       91      100 </v>
   <v type="int" >        2       45       54       99      100 </v>
   <v type="int" >        2       45       90       99      100 </v>
   <v type="int" >        2       45       90       91      100 </v>
   <v type="int" >        2       46       55       56      101 </v>
   <v type="int" >        2       46       47       56      101 </v>
   <v type="int" >        2       46       47       92      101 </v>
   <v type="int" >        2       46       55      100      101 </v>
   <v type="int" >        2       46       91      100      101 </v>
   <v type="int" >        2       46       91       92      101 </v>
   <v type="int" >        2       47       56       57      102 </v>
   <v type="int" >        2       47       48       57      102 </v>
   <v type="int" >        2       47       48       93      102 </v>
   <v type="int" >        2       47       56      101      102 </v>
   <v type="int" >        2       47       92      101      102 </v>
   <v type="int" >        2       47       92       93      102 </v>
   <v type="int" >        2       48       57       58      103 </v>
   <v type="int" >        2       48       49       58      103 </v>
   <v type="int" >        2       48       49       94      103 </v>
   <v type="int" >        2       48       57      102      103 </v>
   <v type="int" >        2       48       93      102      103 </v>
   <v type="int" >        2       48       93       94      103 </v>
   <v type="int" >        2       49       58       59      104 </v>
   <v type="int" >        2       49       50       59      104 </v>
   <v type="int" >        2       49       50       95      104 </v>
   <v type="int" >        2       49       58      103      104 </v>
   <v type="int" >        2       49       94      103      104 </v>
   <v type="int" >        2       49       94       95      104 </v>
   <v type="int" >        2       50       51       59       96 </v>
   <v type="int" >        2       42       50       51       96 </v>
   <v type="int" >        2       42       50       87       96 </v>
   <v type="int" >        2       50       59       96      104 </v>
   <v type="int" >        2       50       95       96      104 </v>
   <v type="int" >        2       50       87       95       96 </v>
   <v type="int" >        2       51       60       61      106 </v>
   <v type="int" >        2       51       52       61      106 </v>
   <v type="int" >        2       51       52       97      106 </v>
   <v type="int" >        2       51       60      105      106 </v>
   <v type="int" >        2       51       96      105      106 </v>
   <v type="int" >        2       51       96       97      106 </v>
   <v type="int" >        2       52       61       62      107 </v>
   <v type="int" >        2       52       53       62      107 </v>
   <v type="int" >        2       52       53       98      107 </v>
   <v type="int" >        2       52       61      106      107 </v>
   <v type="int" >        2       52       97      106      107 </v>
   <v type="int" >        2       52       97       98      107 </v>
   <v type="int" >        2       53       62       63      108 </v>
   <v type="int" >        2       53       54       63      108 </v>
   <v type="int" >        2       53       54       99      108 </v>
   <v type="int" >        2       53       62      107      108 </v>
   <v type="int" >        2       53       98      107      108 </v>
   <v type="int" >        2       53       98       99      108 </v>
   <v type="int" >        2       54       63       64      109 </v>
   <v type="int" >        2       54       55       64      109 </v>
   <v type="int" >        2       54       55      100      109 </v>
   <v type="int" >        2       54       63      108      109 </v>
   <v type="int" >        2       54       99      108      109 </v>
   <v type="int" >        2       54       99      100      109 </v>
   <v type="int" >        2       55       64       65      110 </v>
   <v type="int" >        2       55       56       65      110 </v>
   <v type="int" >        2       55       56      101      110 </v>
   <v type="int" >        2       55       64      109      110 </v>
   <v type="int" >        2       55      100      109      110 </v>
   <v type="int" >        2       55      100      101      110 </v>
   <v type="int" >        2       56       65       66      111 </v>
   <v type="int" >        2       56       57       66      111 </v>
   <v type="int" >        2       56       57      102      111 </v>
   <v type="int" >        2       56       65      110      111 </v>
   <v type="int" >        2       56      101      110      111 </v>
   <v type="int" >        2       56      101      102      111 </v>
   <v type="int" >        2       57       66       67      112 </v>
   <v type="int" >        2       57       58       67      112 </v>
   <v type="int" >        2       57       58      103      112 </v>
   <v type="int" >        2       57       66      111      112 </v>
   <v type="int" >        2       57      102      111      112 </v>
   <v type="int" >        2       57      102      103      112 </v>
   <v type="int" >        2       58       67       68      113 </v>
   <v type="int" >        2       58       59       68      113 </v>
   <v type="int" >        2       58       59      104      113 </v>
   <v type="int" >        2       58       67      112      113 </v>
   <v type="int" >        2       58      103      112      113 </v>
   <v type="int" >        2       58      103      104      113 </v>
   <v type="int" >        2       59       60       68      105 </v>
   <v type="int" >        2       51       59       60      105 </v>
   <v type="int" >        2       51       59       96      105 </v>
   <v type="int" >        2       59       68      105      113 </v>
   <v type="int" >        2       59      104      105      113 </v>
   <v type="int" >        2       59       96      104      105 </v>
   <v type="int" >        2       24       25       60       70 </v>
   <v type="int" >        2       25       60       61       70 </v>
   <v type="int" >        2       60       61       70      106 </v>
   <v type="int" >        2       24       60       69       70 </v>
   <v type="int" >        2       60       69       70      105 </v>
   <v type="int" >        2       60       70      105      106 </v>
   <v type="int" >        2       25       26       61       71 </v>
   <v type="int" >        2       26       61       62       71 </v>
   <v type="int" >        2       61       62       71      107 </v>
   <v type="int" >        2       25       61       70       71 </v>
   <v type="int" >        2       61       70       71      106 </v>
   <v type="int" >        2       61       71      106      107 </v>
   <v type="int" >        2       26       27       62       72 </v>
   <v type="int" >        2       27       62       63       72 </v>
   <v type="int" >        2       62       63       72      108 </v>
   <v type="int" >        2       26       62       71       72 </v>
   <v type="int" >        2       62       71       72      107 </v>
   <v type="int" >        2       62       72      107      108 </v>
   <v type="int" >        2       27       28       63       73 </v>
   <v type="int" >        2       28       63       64       73 </v>
   <v type="int" >        2       63       64       73      109 </v>
   <v type="int" >        2       27       63       72       73 </v>
   <v type="int" >        2       63       72       73      108 </v>
   <v type="int" >        2       63       73      108      109 </v>
   <v type="int" >        2       28       29       64       74 </v>
   <v type="int" >        2       29       64       65       74 </v>
   <v type="int" >        2       64       65       74      110 </v>
   <v type="int" >        2       28       64       73       74 </v>
   <v type="int" >        2       64       73       74      109 </v>
   <v type="int" >        2       64       74      109      110 </v>
   <v type="int" >        2       29       30       65       75 </v>
   <v type="int" >        2       30       65       66       75 </v>
   <v type="int" >        2       65       66       75      111 </v>
   <v type="int" >        2       29       65       74       75 </v>
   <v type="int" >        2       65       74       75      110 </v>
   <v type="int" >        2       65       75      110      111 </v>
   <v type="int" >        2       30       31       66       76 </v>
   <v type="int" >        2       31       66       67       76 </v>
   <v type="int" >        2       66       67       76      112 </v>
   <v type="int" >        2       30       66       75       76 </v>
   <v type="int" >        2       66       75       76      111 </v>
   <v type="int" >        2       66       76      111      112 </v>
   <v type="int" >        2       31       32       67       77 </v>
   <v type="int" >        2       32       67       68       77 </v>
   <v type="int" >        2       67       68       77      113 </v>
   <v type="int" >        2       31       67       76       77 </v>
   <v type="int" >        2       67       76       77      112 </v>
   <v type="int" >        2       67       77      112      113 </v>
   <v type="int" >        2       24       32       68       69 </v>
   <v type="int" >        2       24       60       68       69 </v>
   <v type="int" >        2       60       68       69      105 </v>
   <v type="int" >        2       32       68       69       77 </v>
   <v type="int" >        2       68       69       77      113 </v>
   <v type="int" >        2       68       69      105      113 </v>
   <v type="int" >        2       69       78       79      120 </v>
   <v type="int" >        2       69       70       79      120 </v>
   <v type="int" >        2       69       70      115      120 </v>
   <v type="int" >        2       69       78      119      120 </v>
   <v type="int" >        2       69      114      119      120 </v>
   <v type="int" >        2       69      114      115      120 </v>
   <v type="int" >        2       70       79       80      121 </v>
   <v type="int" >        2       70       71       80      121 </v>
   <v type="int" >        2       70       71      116      121 </v>
   <v type="int" >        2       70       79      120      121 </v>
   <v type="int" >        2       70      115      120      121 </v>
   <v type="int" >        2       70      115      116      121 </v>
   <v type="int" >        2       71       80       81      122 </v>
   <v type="int" >        2       71       72       81      122 </v>
   <v type="int" >        2       71       72      117      122 </v>
   <v type="int" >        2       71       80      121      122 </v>
   <v type="int" >        2       71      116      121      122 </v>
   <v type="int" >        2       71      116      117      122 </v>
   <v type="int" >        2       72       81       82      123 </v>
   <v type="int" >        2       72       73       82      123 </v>
   <v type="int" >        2       72       73      118      123 </v>
   <v type="int" >        2       72       81      122      123 </v>
   <v type="int" >        2       72      117      122      123 </v>
   <v type="int" >        2       72      117      118      123 </v>
   <v type="int" >        2       73       82       83      124 </v>
   <v type="int" >        2       73       74       83      124 </v>
   <v type="int" >        2       73       74      118      124 </v>
   <v type="int" >        2       73       82      123      124 </v>
   <v type="int" >        2       73      118      123      124 </v>
   <v type="int" >        2       73      118      118      124 </v>
   <v type="int" >        2       74       83       84      125 </v>
   <v type="int" >        2       74       75       84      125 </v>
   <v type="int" >        2       74       75      117      125 </v>
   <v type="int" >        2       74       83      124      125 </v>
   <v type="int" >        2       74      118      124      125 </v>
   <v type="int" >        2       74      117      118      125 </v>
   <v type="int" >        2       75       84       85      126 </v>
   <v type="int" >        2       75       76       85      126 </v>
   <v type="int" >        2       75       76      116      126 </v>
   <v type="int" >        2       75       84      125      126 </v>
   <v type="int" >        2       75      117      125      126 </v>
   <v type="int" >        2       75      116      117      126 </v>
   <v type="int" >        2       76       85       86      127 </v>
   <v type="int" >        2       76       77       86      127 </v>
   <v type="int" >        2       76       77      115      127 </v>
   <v type="int" >        2       76       85      126      127 </v>
   <v type="int" >        2       76      116      126      127 </v>
   <v type="int" >        2       76      115      116      127 </v>
   <v type="int" >        2       77       78       86      119 </v>
   <v type="int" >        2       69       77       78      119 </v>
   <v type="int" >        2       69       77      114      119 </v>
   <v type="int" >        2       77       86      119      127 </v>
   <v type="int" >        2       77      115      119      127 </v>
   <v type="int" >        2       77      114      115      119 </v>
   <v type="int" >        2       78       87       88      129 </v>
   <v type="int" >        2       78       79       88      129 </v>
   <v type="int" >        2       78       79      120      129 </v>
   <v type="int" >        2       78       87      128      129 </v>
   <v type="int" >        2       78      119      128      129 </v>
   <v type="int" >        2       78      119      120      129 </v>
   <v type="int" >        2       79       88       89      130 </v>
   <v type="int" >        2       79       80       89      130 </v>
   <v type="int" >        2       79       80      121      130 </v>
   <v type="int" >        2       79       88      129      130 </v>
   <v type="int" >        2       79      120      129      130 </v>
   <v type="int" >        2       79      120      121      130 </v>
   <v type="int" >        2       80       89       90      131 </v>
   <v type="int" >        2       80       81       90      131 </v>
   <v type="int" >        2       80       81      122      131 </v>
   <v type="int" >        2       80       89      130      131 </v>
   <v type="int" >        2       80      121      130      131 </v>
   <v type="int" >        2       80      121      122      131 </v>
   <v type="int" >        2       81       90       91      132 </v>
   <v type="int" >        2       81       82       91      132 </v>
   <v type="int" >        2       81       82      123      132 </v>
   <v type="int" >        2       81       90      131      132 </v>
   <v type="int" >        2       81      122      131      132 </v>
   <v type="int" >        2       81      122      123      132 </v>
   <v type="int" >        2       82       91       92      133 </v>
   <v type="int" >        2       82       83       92      133 </v>
   <v type="int" >        2       82       83      124      133 </v>
   <v type="int" >        2       82       91      132      133 </v>
   <v type="int" >        2       82      123      132      133 </v>
   <v type="int" >        2       82      123      124      133 </v>
   <v type="int" >        2       83       92       93      134 </v>
   <v type="int" >        2       83       84       93      134 </v>
   <v type="int" >        2       83       84      125      134 </v>
   <v type="int" >        2       83       92      133      134 </v>
   <v type="int" >        2       83      124      133      134 </v>
   <v type="int" >        2       83      124      125      134 </v>
   <v type="int" >        2       84       93       94      135 </v>
   <v type="int" >        2       84       85       94      135 </v>
   <v type="int" >        2       84       85      126      135 </v>
   <v type="int" >        2       84       93      134      135 </v>
   <v type="int" >        2       84      125      134      135 </v>
   <v type="int" >        2       84      125      126      135 </v>
   <v type="int" >        2       85       94       95      136 </v>
   <v type="int" >        2       85       86       95      136 </v>
   <v type="int" >        2       85       86      127      136 </v>
   <v type="int" >        2       85       94      135      136 </v>
   <v type="int" >        2       85      126      135      136 </v>
   <v type="int" >        2       85      126      127      136 </v>
   <v type="int" >        2       86       87       95      128 </v>
   <v type="int" >        2       78       86       87      128 </v>
   <v type="int" >        2       78       86      119      128 </v>
   <v type="int" >        2       86       95      128      136 </v>
   <v type="int" >        2       86      127      128      136 </v>
   <v type="int" >        2       86      119      127      128 </v>
   <v type="int" >        2       87       96       97      136 </v>
   <v type="int" >        2       87       88       97      136 </v>
   <v type="int" >        2       87       88      129      136 </v>
   <v type="int" >        2       87       96      128      136 </v>
   <v type="int" >        2       87      128      128      136 </v>
   <v type="int" >        2       87      128      129      136 </v>
   <v type="int" >        2       88       97       98      135 </v>
   <v type="int" >        2       88       89       98      135 </v>
   <v type="int" >        2       88       89      130      135 </v>
   <v type="int" >        2       88       97      135      136 </v>
   <v type="int" >        2       88      129      135      136 </v>
   <v type="int" >        2       88      129      130      135 </v>
   <v type="int" >        2       89       98       99      134 </v>
   <v type="int" >        2       89       90       99      134 </v>
   <v type="int" >        2       89       90      131      134 </v>
   <v type="int" >        2       89       98      134      135 </v>
   <v type="int" >        2       89      130      134      135 </v>
   <v type="int" >        2       89      130      131      134 </v>
   <v type="int" >        2       90       99      100      133 </v>
   <v type="int" >        2       90       91      100      133 </v>
   <v type="int" >        2       90       91      132      133 </v>
   <v type="int" >        2       90       99      133      134 </v>
   <v type="int" >        2       90      131      133      134 </v>
   <v type="int" >        2       90      131      132      133 </v>
   <v type="int" >        2       91      100      101      132 </v>
   <v type="int" >        2       91       92      101      132 </v>
   <v type="int" >        2       91       92      132      133 </v>
   <v type="int" >        2       91      100      132      133 </v>
   <v type="int" >        4       91      132      132      133 </v>
   <v type="int" >        2       92      101      102      131 </v>
   <v type="int" >        2       92       93      102      131 </v>
   <v type="int" >        2       92       93      131      134 </v>
   <v type="int" >        2       92      101      131      132 </v>
   <v type="int" >        2       92      131      132      133 </v>
   <v type="int" >        2       92      131      133      134 </v>
   <v type="int" >        2       93      102      103      130 </v>
   <v type="int" >        2       93       94      103      130 </v>
   <v type="int" >        2       93       94      130      135 </v>
   <v type="int" >        2       93      102      130      131 </v>
   <v type="int" >        2       93      130      131      134 </v>
   <v type="int" >        2       93      130      134      135 </v>
   <v type="int" >        2       94      103      104      129 </v>
   <v type="int" >        2       94       95      104      129 </v>
   <v type="int" >        2       94       95      129      136 </v>
   <v type="int" >        2       94      103      129      130 </v>
   <v type="int" >        2       94      129      130      135 </v>
   <v type="int" >        2       94      129      135      136 </v>
   <v type="int" >        2       95       96      104      128 </v>
   <v type="int" >        2       87       95       96      128 </v>
   <v type="int" >        2       87       95      128      128 </v>
   <v type="int" >        2       95      104      128      129 </v>
   <v type="int" >        2       95      128      129      136 </v>
   <v type="int" >        2       95      128      128      136 </v>
   <v type="int" >        2       96      105      106      127 </v>
   <v type="int" >        2       96       97      106      127 </v>
   <v type="int" >        2       96       97      127      136 </v>
   <v type="int" >        2       96      105      119      127 </v>
   <v type="int" >        2       96      119      127      128 </v>
   <v type="int" >        2       96      127      128      136 </v>
   <v type="int" >        2       97      106      107      126 </v>
   <v type="int" >        2       97       98      107      126 </v>
   <v type="int" >        2       97       98      126      135 </v>
   <v type="int" >        2       97      106      126      127 </v>
   <v type="int" >        2       97      126      127      136 </v>
   <v type="int" >        2       97      126      135      136 </v>
   <v type="int" >        2       98      107      108      125 </v>
   <v type="int" >        2       98       99      108      125 </v>
   <v type="int" >        2       98       99      125      134 </v>
   <v type="int" >        2       98      107      125      126 </v>
   <v type="int" >        2       98      125      126      135 </v>
   <v type="int" >        2       98      125      134      135 </v>
   <v type="int" >        2       99      108      109      124 </v>
   <v type="int" >        2       99      100      109      124 </v>
   <v type="int" >        2       99      100      124      133 </v>
   <v type="int" >        2       99      108      124      125 </v>
   <v type="int" >        2       99      124      125      134 </v>
   <v type="int" >        2       99      124      133      134 </v>
   <v type="int" >        2      100      109      110      123 </v>
   <v type="int" >        2      100      101      110      123 </v>
   <v type="int" >        2      100      101      123      132 </v>
   <v type="int" >        2      100      109      123      124 </v>
   <v type="int" >        2      100      123      124      133 </v>
   <v type="int" >        2      100      123      132      133 </v>
   <v type="int" >        2      101      110      111      122 </v>
   <v type="int" >        2      101      102      111      122 </v>
   <v type="int" >        2      101      102      122      131 </v>
   <v type="int" >        2      101      110      122      123 </v>
   <v type="int" >        2      101      122      123      132 </v>
   <v type="int" >        2      101      122      131      132 </v>
   <v type="int" >        2      102      111      112      121 </v>
   <v type="int" >        2      102      103      112      121 </v>
   <v type="int" >        2      102      103      121      130 </v>
   <v type="int" >        2      102      111      121      122 </v>
   <v type="int" >        2      102      121      122      131 </v>
   <v type="int" >        2      102      121      130      131 </v>
   <v type="int" >        2      103      112      113      120 </v>
   <v type="int" >        2      103      104      113      120 </v>
   <v type="int" >        2      103      104      120      129 </v>
   <v type="int" >        2      103      112      120      121 </v>
   <v type="int" >        2      103      120      121      130 </v>
   <v type="int" >        2      103      120      129      130 </v>
   <v type="int" >        2      104      105      113      119 </v>
   <v type="int" >        2       96      104      105      119 </v>
   <v type="int" >        2       96      104      119      128 </v>
   <v type="int" >        2      104      113      119      120 </v>
   <v type="int" >        2      104      119      120      129 </v>
   <v type="int" >        2      104      119      128      129 </v>
   <v type="int" >        2       69       70      105      115 </v>
   <v type="int" >        2       70      105      106      115 </v>
   <v type="int" >        2      105      106      115      127 </v>
   <v type="int" >        2       69      105      114      115 </v>
   <v type="int" >        2      105      114      115      119 </v>
   <v type="int" >        2      105      115      119      127 </v>
   <v type="int" >        2       70       71      106      116 </v>
   <v type="int" >        2       71      106      107      116 </v>
   <v type="int" >        2      106      107      116      126 </v>
   <v type="int" >        2       70      106      115      116 </v>
   <v type="int" >        2      106      115      116      127 </v>
   <v type="int" >        2      106      116      126      127 </v>
   <v type="int" >        2       71       72      107      117 </v>
   <v type="int" >        2       72      107      108      117 </v>
   <v type="int" >        2      107      108      117      125 </v>
   <v type="int" >        2       71      107      116      117 </v>
   <v type="int" >        2      107      116      117      126 </v>
   <v type="int" >        2      107      117      125      126 </v>
   <v type="int" >        2       72       73      108      118 </v>
   <v type="int" >        2       73      108      109      118 </v>
   <v type="int" >        2      108      109      118      124 </v>
   <v type="int" >        2       72      108      117      118 </v>
   <v type="int" >        2      108      117      118      125 </v>
   <v type="int" >        2      108      118      124      125 </v>
   <v type="int" >        2       73       74      109      118 </v>
   <v type="int" >        2       74      109      110      118 </v>
   <v type="int" >        2      109      110      118      123 </v>
   <v type="int" >        2       73      109      118      118 </v>
   <v type="int" >        2      109      118      118      124 </v>
   <v type="int" >        2      109      118      123      124 </v>
   <v type="int" >        2       74       75      110      117 </v>
   <v type="int" >        2       75      110      111      117 </v>
   <v type="int" >        2      110      111      117      122 </v>
   <v type="int" >        2       74      110      117      118 </v>
   <v type="int" >        2      110      117      118      123 </v>
   <v type="int" >        2      110      117      122      123 </v>
   <v type="int" >        2       75       76      111      116 </v>
   <v type="int" >        2       76      111      112      116 </v>
   <v type="int" >        2      111      112      116      121 </v>
   <v type="int" >        2       75      111      116      117 </v>
   <v type="int" >        2      111      116      117      122 </v>
   <v type="int" >        2      111      116      121      122 </v>
   <v type="int" >        2       76       77      112      115 </v>
   <v type="int" >        2       77      112      113      115 </v>
   <v type="int" >        2      112      113      115      120 </v>
   <v type="int" >        2       76      112      115      116 </v>
   <v type="int" >        2      112      115      116      121 </v>
   <v type="int" >        2      112      115      120      121 </v>
   <v type="int" >        2       69       77      113      114 </v>
   <v type="int" >        2       69      105      113      114 </v>
   <v type="int" >        2      105      113      114      119 </v>
   <v type="int" >        2       77      113      114      115 </v>
   <v type="int" >        2      113      114      115      120 </v>
   <v type="int" >        2      113      114      119      120 </v>
  </varray>
  <i name="volumeweight">      0.00061728 </i>
 </kpoints>
 <parameters>
  <separator name="general" >
   <i type="string" name="SYSTEM">unknown system</i>
   <i type="logical" name="LCOMPAT"> F  </i>
  </separator>
  <separator name="electronic" >
   <i type="string" name="PREC">normal</i>
   <i name="ENMAX">    500.00000000</i>
   <i name="ENAUG">    627.11200000</i>
   <i name="EDIFF">      0.00010000</i>
   <i type="int" name="IALGO">    68</i>
   <i type="int" name="IWAVPR">    11</i>
   <i type="int" name="NBANDS">    18</i>
   <i type="int" name="NBANDSLOW">    -1</i>
   <i type="int" name="NBANDSHIGH">    -1</i>
   <i name="NELECT">     29.00000000</i>
   <i type="int" name="TURBO">     0</i>
   <i type="int" name="IRESTART">     0</i>
   <i type="int" name="NREBOOT">     0</i>
   <i type="int" name="NMIN">     0</i>
   <i name="EREF">      0.00000000</i>
   <separator name="electronic smearing" >
    <i type="int" name="ISMEAR">    -5</i>
    <i name="SIGMA">      0.20000000</i>
    <i name="KSPACING">      0.50000000</i>
    <i type="logical" name="KGAMMA"> T  </i>
    <i type="logical" name="KBLOWUP"> T  </i>
   </separator>
   <separator name="electronic projectors" >
    <i type="logical" name="LREAL"> F  </i>
    <v name="ROPT">      0.00000000      0.00000000</v>
    <i type="int" name="LMAXPAW">  -100</i>
    <i type="int" name="LMAXMIX">     2</i>
    <i type="logical" name="NLSPLINE"> F  </i>
   </separator>
   <separator name="electronic startup" >
    <i type="int" name="ISTART">     0</i>
    <i type="int" name="ICHARG">     2</i>
    <i type="int" name="INIWAV">     1</i>
   </separator>
   <separator name="electronic spin" >
    <i type="int" name="ISPIN">     1</i>
    <i type="logical" name="LNONCOLLINEAR"> F  </i>
    <v name="MAGMOM">      1.00000000      1.00000000      1.00000000      1.00000000      1.00000000      1.00000000</v>
    <i name="NUPDOWN">     -1.00000000</i>
    <i type="logical" name="LSORBIT"> F  </i>
    <v name="SAXIS">      0.00000000      0.00000000      1.00000000</v>
    <i type="logical" name="LSPIRAL"> F  </i>
    <v name="QSPIRAL">      0.00000000      0.00000000      0.00000000</v>
    <i type="logical" name="LZEROZ"> F  </i>
   </separator>
   <separator name="electronic exchange-correlation" >
    <i type="logical" name="LASPH"> F  </i>
    <i type="logical" name="LMETAGGA"> F  </i>
   </separator>
   <separator name="electronic convergence" >
    <i type="int" name="NELM">    60</i>
    <i type="int" name="NELMDL">    -5</i>
    <i type="int" name="NELMIN">     2</i>
    <i name="ENINI">    500.00000000</i>
    <separator name="electronic convergence detail" >
     <i type="logical" name="LDIAG"> T  </i>
     <i type="logical" name="LSUBROT"> F  </i>
     <i name="WEIMIN">      0.00100000</i>
     <i name="EBREAK">      0.00000139</i>
     <i name="DEPER">      0.30000000</i>
     <i type="int" name="NRMM">     4</i>
     <i name="TIME">      0.40000000</i>
    </separator>
   </separator>
   <separator name="electronic mixer" >
    <i name="AMIX">      0.40000000</i>
    <i name="BMIX">      1.00000000</i>
    <i name="AMIN">      0.10000000</i>
    <i name="AMIX_MAG">      1.60000000</i>
    <i name="BMIX_MAG">      1.00000000</i>
    <separator name="electronic mixer details" >
     <i type="int" name="IMIX">     4</i>
     <i type="logical" name="MIXFIRST"> F  </i>
     <i type="int" name="MAXMIX">   -45</i>
     <i name="WC">    100.00000000</i>
     <i type="int" name="INIMIX">     1</i>
     <i type="int" name="MIXPRE">     1</i>
     <i type="int" name="MREMOVE">     5</i>
    </separator>
   </separator>
   <separator name="electronic dipolcorrection" >
    <i type="logical" name="LDIPOL"> F  </i>
    <i type="logical" name="LMONO"> F  </i>
    <i type="int" name="IDIPOL">     0</i>
    <i name="EPSILON">      1.00000000</i>
    <v name="DIPOL">   -100.00000000   -100.00000000   -100.00000000</v>
    <i name="EFIELD">      0.00000000</i>
   </separator>
  </separator>
  <separator name="grids" >
   <i type="int" name="NGX">    24</i>
   <i type="int" name="NGY">    40</i>
   <i type="int" name="NGZ">    40</i>
   <i type="int" name="NGXF">    48</i>
   <i type="int" name="NGYF">    80</i>
   <i type="int" name="NGZF">    80</i>
   <i type="logical" name="ADDGRID"> F  </i>
  </separator>
  <separator name="ionic" >
   <i type="int" name="NSW">   100</i>
   <i type="int" name="IBRION">     2</i>
   <i type="int" name="MDALGO">     0</i>
   <i type="int" name="ISIF">     3</i>
   <i name="PSTRESS">      0.00000000</i>
   <i name="EDIFFG">      0.00100000</i>
   <i type="int" name="NFREE">     1</i>
   <i name="POTIM">      0.50000000</i>
   <i name="SMASS">     -3.00000000</i>
   <i name="SCALEE">      1.00000000</i>
  </separator>
  <separator name="ionic md" >
   <i name="TEBEG">      0.00010000</i>
   <i name="TEEND">      0.00010000</i>
   <i type="int" name="NBLOCK">     1</i>
   <i type="int" name="KBLOCK">   100</i>
   <i type="int" name="NPACO">   256</i>
   <i name="APACO">     16.00000000</i>
  </separator>
  <separator name="symmetry" >
   <i type="int" name="ISYM">     2</i>
   <i name="SYMPREC">      0.00001000</i>
  </separator>
  <separator name="dos" >
   <i type="int" name="LORBIT">     0</i>
   <v name="RWIGS">     -1.00000000     -1.00000000</v>
   <i type="int" name="NEDOS">   301</i>
   <i name="EMIN">     10.00000000</i>
   <i name="EMAX">    -10.00000000</i>
   <i name="EFERMI">      0.00000000</i>
  </separator>
  <separator name="writing" >
   <i type="int" name="NWRITE">     2</i>
   <i type="logical" name="LWAVE"> F  </i>
   <i type="logical" name="LDOWNSAMPLE"> F  </i>
   <i type="logical" name="LCHARG"> F  </i>
   <i type="logical" name="LPARD"> F  </i>
   <i type="logical" name="LVTOT"> F  </i>
   <i type="logical" name="LVHAR"> F  </i>
   <i type="logical" name="LELF"> F  </i>
   <i type="logical" name="LOPTICS"> F  </i>
   <v name="STM">      0.00000000      0.00000000      0.00000000      0.00000000      0.00000000      0.00000000      0.00000000</v>
  </separator>
  <separator name="performance" >
   <i type="int" name="NPAR">     1</i>
   <i type="int" name="NSIM">     4</i>
   <i type="int" name="NBLK">    -1</i>
   <i type="logical" name="LPLANE"> T  </i>
   <i type="logical" name="LSCALAPACK"> T  </i>
   <i type="logical" name="LSCAAWARE"> F  </i>
   <i type="logical" name="LSCALU"> F  </i>
   <i type="logical" name="LASYNC"> F  </i>
   <i type="logical" name="LORBITALREAL"> F  </i>
  </separator>
  <separator name="miscellaneous" >
   <i type="int" name="IDIOT">     3</i>
   <i type="int" name="PHON_NSTRUCT">    -1</i>
   <i type="logical" name="LMUSIC"> F  </i>
   <v name="POMASS">     28.08500000     14.00100000</v>
   <v name="DARWINR">      0.00000000      0.00000000</v>
   <v name="DARWINV">      1.00000000      1.00000000</v>
   <i type="logical" name="LCORR"> T  </i>
  </separator>
  <i type="logical" name="GGA_COMPAT"> T  </i>
  <i type="logical" name="LBERRY"> F  </i>
  <i type="int" name="ICORELEVEL">     0</i>
  <i type="logical" name="LDAU"> F  </i>
  <i type="int" name="I_CONSTRAINED_M">     0</i>
  <separator name="electronic exchange-correlation" >
   <i type="string" name="GGA">--</i>
   <i type="int" name="VOSKOWN">     0</i>
   <i type="logical" name="LHFCALC"> F  </i>
   <i type="string" name="PRECFOCK"></i>
   <i type="logical" name="LSYMGRAD"> F  </i>
   <i type="logical" name="LHFONE"> F  </i>
   <i type="logical" name="LRHFCALC"> F  </i>
   <i type="logical" name="LTHOMAS"> F  </i>
   <i type="logical" name="LMODELHF"> F  </i>
   <i type="logical" name="LFOCKACE"> F  </i>
   <i name="ENCUT4O">     -1.00000000</i>
   <i type="int" name="EXXOEP">     0</i>
   <i type="int" name="FOURORBIT">     0</i>
   <i name="AEXX">      0.00000000</i>
   <i name="HFALPHA">      0.00000000</i>
   <i name="MCALPHA">      0.00000000</i>
   <i name="ALDAX">      1.00000000</i>
   <i name="AGGAX">      1.00000000</i>
   <i name="ALDAC">      1.00000000</i>
   <i name="AGGAC">      1.00000000</i>
   <i type="int" name="NKREDX">     1</i>
   <i type="int" name="NKREDY">     1</i>
   <i type="int" name="NKREDZ">     1</i>
   <i type="logical" name="SHIFTRED"> F  </i>
   <i type="logical" name="ODDONLY"> F  </i>
   <i type="logical" name="EVENONLY"> F  </i>
   <i type="int" name="LMAXFOCK">     0</i>
   <i type="int" name="NMAXFOCKAE">     0</i>
   <i type="logical" name="LFOCKAEDFT"> F  </i>
   <i name="HFSCREEN">      0.00000000</i>
   <i name="HFSCREENC">      0.00000000</i>
   <i type="int" name="NBANDSGWLOW">     0</i>
  </separator>
  <separator name="vdW DFT" >
   <i type="logical" name="LUSE_VDW"> F  </i>
   <i name="Zab_VDW">     -0.84910000</i>
   <i name="PARAM1">      0.12340000</i>
   <i name="PARAM2">      1.00000000</i>
[...]
       <r>   -2.1775    1.0000 </r>
       <r>   -0.7994    0.9296 </r>
       <r>    0.5031    0.0000 </r>
       <r>    2.1903    0.0000 </r>
       <r>    2.5681    0.0000 </r>
      </set>
      <set comment="kpoint 132">
       <r>  -24.6984    1.0000 </r>
       <r>  -22.6184    1.0000 </r>
       <r>  -20.5597    1.0000 </r>
       <r>  -14.5930    1.0000 </r>
       <r>  -10.9655    1.0000 </r>
       <r>   -9.2662    1.0000 </r>
       <r>   -8.7723    1.0000 </r>
       <r>   -8.6743    1.0000 </r>
       <r>   -7.0464    1.0000 </r>
       <r>   -6.6899    1.0000 </r>
       <r>   -5.9982    1.0000 </r>
       <r>   -4.3055    1.0000 </r>
       <r>   -3.3500    1.0000 </r>
       <r>   -2.3346    1.0000 </r>
       <r>   -1.0234    1.0000 </r>
       <r>    0.7618    0.0000 </r>
       <r>    1.9515    0.0000 </r>
       <r>    2.6107    0.0000 </r>
      </set>
      <set comment="kpoint 133">
       <r>  -24.6984    1.0000 </r>
       <r>  -22.6184    1.0000 </r>
       <r>  -20.5598    1.0000 </r>
       <r>  -14.5931    1.0000 </r>
       <r>  -10.9657    1.0000 </r>
       <r>   -9.2667    1.0000 </r>
       <r>   -8.7713    1.0000 </r>
       <r>   -8.6739    1.0000 </r>
       <r>   -7.0607    1.0000 </r>
       <r>   -6.6763    1.0000 </r>
       <r>   -5.9980    1.0000 </r>
       <r>   -4.3062    1.0000 </r>
       <r>   -3.3463    1.0000 </r>
       <r>   -2.3367    1.0000 </r>
       <r>   -1.0223    1.0000 </r>
       <r>    0.7570    0.0000 </r>
       <r>    1.9751    0.0000 </r>
       <r>    2.6131    0.0000 </r>
      </set>
      <set comment="kpoint 134">
       <r>  -24.7047    1.0000 </r>
       <r>  -22.6564    1.0000 </r>
       <r>  -20.5591    1.0000 </r>
       <r>  -14.3111    1.0000 </r>
       <r>  -11.0695    1.0000 </r>
       <r>   -9.3542    1.0000 </r>
       <r>   -8.7639    1.0000 </r>
       <r>   -8.6897    1.0000 </r>
       <r>   -7.1793    1.0000 </r>
       <r>   -6.6785    1.0000 </r>
       <r>   -6.3122    1.0000 </r>
       <r>   -4.1856    1.0000 </r>
       <r>   -3.3028    1.0000 </r>
       <r>   -2.1795    1.0000 </r>
       <r>   -0.7967    0.9233 </r>
       <r>    0.4970    0.0000 </r>
       <r>    2.2613    0.0000 </r>
       <r>    2.5489    0.0000 </r>
      </set>
      <set comment="kpoint 135">
       <r>  -24.7144    1.0000 </r>
       <r>  -22.7130    1.0000 </r>
       <r>  -20.5582    1.0000 </r>
       <r>  -13.7907    1.0000 </r>
       <r>  -11.2723    1.0000 </r>
       <r>   -9.6377    1.0000 </r>
       <r>   -8.7204    1.0000 </r>
       <r>   -8.6768    1.0000 </r>
       <r>   -7.3358    1.0000 </r>
       <r>   -6.7811    1.0000 </r>
       <r>   -6.6110    1.0000 </r>
       <r>   -4.0505    1.0000 </r>
       <r>   -3.2538    1.0000 </r>
       <r>   -1.8570    1.0000 </r>
       <r>   -0.4930   -0.0117 </r>
       <r>    0.2955    0.0000 </r>
       <r>    2.3640    0.0000 </r>
       <r>    2.5508    0.0000 </r>
      </set>
      <set comment="kpoint 136">
       <r>  -24.7227    1.0000 </r>
       <r>  -22.7613    1.0000 </r>
       <r>  -20.5575    1.0000 </r>
       <r>  -13.1274    1.0000 </r>
       <r>  -11.6114    1.0000 </r>
       <r>  -10.0009    1.0000 </r>
       <r>   -8.7510    1.0000 </r>
       <r>   -8.5671    1.0000 </r>
       <r>   -7.4631    1.0000 </r>
       <r>   -7.0197    1.0000 </r>
       <r>   -6.6404    1.0000 </r>
       <r>   -3.9707    1.0000 </r>
       <r>   -3.2225    1.0000 </r>
       <r>   -1.4327    1.0000 </r>
       <r>   -0.5056   -0.0817 </r>
       <r>    0.4243    0.0000 </r>
       <r>    2.2662    0.0000 </r>
       <r>    2.6490    0.0000 </r>
      </set>
     </set>
    </set>
   </array>
  </eigenvalues>
  <separator name="orbital magnetization" >
   <v name="MAGDIPOLOUT">      0.00000000      0.00000000      0.00000000</v>
  </separator>
  <dos>
   <i name="efermi">     -0.67757552 </i>
   <total>
    <array>
     <dimension dim="1">gridpoints</dimension>
     <dimension dim="2">spin</dimension>
     <field>energy</field>
     <field>total</field>
     <field>integrated</field>
     <set>
      <set comment="spin 1">
       <r>   -26.7276     0.0000     0.0000 </r>
       <r>   -26.6219     0.0000     0.0000 </r>
       <r>   -26.5163     0.0000     0.0000 </r>
       <r>   -26.4106     0.0000     0.0000 </r>
       <r>   -26.3049     0.0000     0.0000 </r>
       <r>   -26.1993     0.0000     0.0000 </r>
       <r>   -26.0936     0.0000     0.0000 </r>
       <r>   -25.9879     0.0000     0.0000 </r>
       <r>   -25.8823     0.0000     0.0000 </r>
       <r>   -25.7766     0.0000     0.0000 </r>
       <r>   -25.6709     0.0000     0.0000 </r>
       <r>   -25.5653     0.0000     0.0000 </r>
       <r>   -25.4596     0.0000     0.0000 </r>
       <r>   -25.3539     0.0000     0.0000 </r>
       <r>   -25.2483     0.0000     0.0000 </r>
       <r>   -25.1426     0.0000     0.0000 </r>
       <r>   -25.0369     0.0000     0.0000 </r>
       <r>   -24.9313     0.0000     0.0000 </r>
       <r>   -24.8256     0.0000     0.0000 </r>
       <r>   -24.7199    55.1306     0.6139 </r>
       <r>   -24.6143    10.5154     2.0000 </r>
       <r>   -24.5086     0.0000     2.0000 </r>
       <r>   -24.4030     0.0000     2.0000 </r>
       <r>   -24.2973     0.0000     2.0000 </r>
       <r>   -24.1916     0.0000     2.0000 </r>
       <r>   -24.0860     0.0000     2.0000 </r>
       <r>   -23.9803     0.0000     2.0000 </r>
       <r>   -23.8746     0.0000     2.0000 </r>
       <r>   -23.7690     0.0000     2.0000 </r>
       <r>   -23.6633     0.0000     2.0000 </r>
       <r>   -23.5576     0.0000     2.0000 </r>
       <r>   -23.4520     0.0000     2.0000 </r>
       <r>   -23.3463     0.0000     2.0000 </r>
       <r>   -23.2406     0.0000     2.0000 </r>
       <r>   -23.1350     0.0000     2.0000 </r>
       <r>   -23.0293     0.0000     2.0000 </r>
       <r>   -22.9236     0.0000     2.0000 </r>
       <r>   -22.8180     0.0000     2.0000 </r>
       <r>   -22.7123    14.5841     2.8884 </r>
       <r>   -22.6066     8.0618     4.0000 </r>
       <r>   -22.5010     0.0000     4.0000 </r>
       <r>   -22.3953     0.0000     4.0000 </r>
       <r>   -22.2896     0.0000     4.0000 </r>
       <r>   -22.1840     0.0000     4.0000 </r>
       <r>   -22.0783     0.0000     4.0000 </r>
       <r>   -21.9726     0.0000     4.0000 </r>
       <r>   -21.8670     0.0000     4.0000 </r>
       <r>   -21.7613     0.0000     4.0000 </r>
       <r>   -21.6557     0.0000     4.0000 </r>
       <r>   -21.5500     0.0000     4.0000 </r>
       <r>   -21.4443     0.0000     4.0000 </r>
       <r>   -21.3387     0.0000     4.0000 </r>
       <r>   -21.2330     0.0000     4.0000 </r>
       <r>   -21.1273     0.0000     4.0000 </r>
       <r>   -21.0217     0.0000     4.0000 </r>
       <r>   -20.9160     0.0000     4.0000 </r>
       <r>   -20.8103     0.0000     4.0000 </r>
       <r>   -20.7047     0.0000     4.0000 </r>
       <r>   -20.5990     0.0000     4.0000 </r>
       <r>   -20.4933    18.9277     6.0000 </r>
       <r>   -20.3877     0.0000     6.0000 </r>
       <r>   -20.2820     0.0000     6.0000 </r>
       <r>   -20.1763     0.0000     6.0000 </r>
       <r>   -20.0707     0.0000     6.0000 </r>
       <r>   -19.9650     0.0000     6.0000 </r>
       <r>   -19.8593     0.0000     6.0000 </r>
       <r>   -19.7537     0.0000     6.0000 </r>
       <r>   -19.6480     0.0000     6.0000 </r>
       <r>   -19.5423     0.0000     6.0000 </r>
       <r>   -19.4367     0.0000     6.0000 </r>
       <r>   -19.3310     0.0000     6.0000 </r>
       <r>   -19.2254     0.0000     6.0000 </r>
       <r>   -19.1197     0.0000     6.0000 </r>
       <r>   -19.0140     0.0000     6.0000 </r>
       <r>   -18.9084     0.0000     6.0000 </r>
       <r>   -18.8027     0.0000     6.0000 </r>
       <r>   -18.6970     0.0000     6.0000 </r>
       <r>   -18.5914     0.0000     6.0000 </r>
       <r>   -18.4857     0.0000     6.0000 </r>
       <r>   -18.3800     0.0000     6.0000 </r>
       <r>   -18.2744     0.0000     6.0000 </r>
       <r>   -18.1687     0.0000     6.0000 </r>
       <r>   -18.0630     0.0000     6.0000 </r>
       <r>   -17.9574     0.0000     6.0000 </r>
       <r>   -17.8517     0.0000     6.0000 </r>
       <r>   -17.7460     0.0000     6.0000 </r>
       <r>   -17.6404     0.0000     6.0000 </r>
       <r>   -17.5347     0.0000     6.0000 </r>
       <r>   -17.4290     0.0000     6.0000 </r>
       <r>   -17.3234     0.0000     6.0000 </r>
       <r>   -17.2177     0.0000     6.0000 </r>
       <r>   -17.1120     0.0000     6.0000 </r>
       <r>   -17.0064     0.0000     6.0000 </r>
       <r>   -16.9007     0.0000     6.0000 </r>
       <r>   -16.7950     0.0000     6.0000 </r>
       <r>   -16.6894     0.0000     6.0000 </r>
       <r>   -16.5837     0.0000     6.0000 </r>
       <r>   -16.4781     0.0000     6.0000 </r>
       <r>   -16.3724     0.0000     6.0000 </r>
       <r>   -16.2667     0.0000     6.0000 </r>
       <r>   -16.1611     0.0000     6.0000 </r>
       <r>   -16.0554     0.0000     6.0000 </r>
       <r>   -15.9497     0.0000     6.0000 </r>
       <r>   -15.8441     0.0000     6.0000 </r>
       <r>   -15.7384     0.0000     6.0000 </r>
       <r>   -15.6327     0.0000     6.0000 </r>
       <r>   -15.5271     0.0000     6.0000 </r>
       <r>   -15.4214     0.0000     6.0000 </r>
       <r>   -15.3157     0.0000     6.0000 </r>
       <r>   -15.2101     0.0000     6.0000 </r>
       <r>   -15.1044     0.0000     6.0000 </r>
       <r>   -14.9987     0.0000     6.0000 </r>
       <r>   -14.8931     0.0000     6.0000 </r>
       <r>   -14.7874     0.0000     6.0000 </r>
       <r>   -14.6817     0.0000     6.0000 </r>
       <r>   -14.5761     3.6855     6.2393 </r>
       <r>   -14.4704     1.5824     6.4065 </r>
       <r>   -14.3647     1.5824     6.5737 </r>
       <r>   -14.2591     0.8571     6.7069 </r>
       <r>   -14.1534     0.8571     6.7974 </r>
       <r>   -14.0477     0.8571     6.8880 </r>
       <r>   -13.9421     0.8571     6.9786 </r>
       <r>   -13.8364     0.8571     7.0691 </r>
       <r>   -13.7308     0.6719     7.1492 </r>
       <r>   -13.6251     0.6719     7.2202 </r>
       <r>   -13.5194     0.6719     7.2912 </r>
       <r>   -13.4138     0.6719     7.3622 </r>
       <r>   -13.3081     0.6719     7.4332 </r>
       <r>   -13.2024     0.6719     7.5042 </r>
       <r>   -13.0968     0.9312     7.5827 </r>
       <r>   -12.9911     0.9313     7.6811 </r>
       <r>   -12.8854     0.9313     7.7795 </r>
       <r>   -12.7798     0.9313     7.8780 </r>
       <r>   -12.6741     0.9313     7.9764 </r>
       <r>   -12.5684     0.0000     8.0000 </r>
       <r>   -12.4628     0.0000     8.0000 </r>
       <r>   -12.3571     0.0000     8.0000 </r>
       <r>   -12.2514     0.0000     8.0000 </r>
       <r>   -12.1458     0.0000     8.0000 </r>
       <r>   -12.0401     0.0000     8.0000 </r>
       <r>   -11.9344     1.2899     8.0283 </r>
       <r>   -11.8288     1.2898     8.1646 </r>
       <r>   -11.7231     1.2897     8.3009 </r>
       <r>   -11.6174     1.2923     8.4372 </r>
       <r>   -11.5118     1.3174     8.5761 </r>
       <r>   -11.4061     1.3173     8.7153 </r>
       <r>   -11.3004     1.3172     8.8545 </r>
       <r>   -11.1948     2.2463     9.0676 </r>
       <r>   -11.0891     2.2752     9.3050 </r>
       <r>   -10.9835    11.9735     9.8055 </r>
       <r>   -10.8778     1.0515    10.0000 </r>
       <r>   -10.7721     0.0000    10.0000 </r>
       <r>   -10.6665     0.0000    10.0000 </r>
       <r>   -10.5608     0.0000    10.0000 </r>
       <r>   -10.4551     0.0000    10.0000 </r>
       <r>   -10.3495     0.0000    10.0000 </r>
       <r>   -10.2438     0.0000    10.0000 </r>
       <r>   -10.1381     2.8035    10.0693 </r>
       <r>   -10.0325     2.8032    10.3655 </r>
       <r>    -9.9268     1.2399    10.5405 </r>
       <r>    -9.8211     1.2398    10.6715 </r>
       <r>    -9.7155     1.2397    10.8025 </r>
       <r>    -9.6098     1.5794    10.9455 </r>
       <r>    -9.5041     1.5793    11.1124 </r>
       <r>    -9.3985     1.5793    11.2793 </r>
       <r>    -9.2928     9.9203    11.7987 </r>
       <r>    -9.1871     0.8412    12.0000 </r>
       <r>    -9.0815     0.0000    12.0000 </r>
       <r>    -8.9758     0.0000    12.0000 </r>
       <r>    -8.8701     0.0000    12.0000 </r>
       <r>    -8.7645    52.7420    12.7131 </r>
       <r>    -8.6588    29.2852    15.0808 </r>
       <r>    -8.5531     9.3387    15.6844 </r>
       <r>    -8.4475     0.0000    16.0000 </r>
       <r>    -8.3418     0.0000    16.0000 </r>
       <r>    -8.2362     0.0000    16.0000 </r>
       <r>    -8.1305     0.0000    16.0000 </r>
       <r>    -8.0248     0.0000    16.0000 </r>
       <r>    -7.9192     0.0000    16.0000 </r>
       <r>    -7.8135     0.0000    16.0000 </r>
       <r>    -7.7078     0.0000    16.0000 </r>
       <r>    -7.6022     0.0000    16.0000 </r>
       <r>    -7.4965     2.1375    16.0191 </r>
       <r>    -7.3908     4.5517    16.4729 </r>
       <r>    -7.2852     2.8337    16.7916 </r>
       <r>    -7.1795     3.1759    17.1041 </r>
       <r>    -7.0738    11.2964    17.6709 </r>
       <r>    -6.9682     5.7085    18.6370 </r>
       <r>    -6.8625     2.8757    18.9239 </r>
       <r>    -6.7568     5.5624    19.3303 </r>
       <r>    -6.6512    16.0327    20.6959 </r>
       <r>    -6.5455     1.5535    21.0010 </r>
       <r>    -6.4398     1.4142    21.1504 </r>
       <r>    -6.3342     1.4153    21.2999 </r>
       <r>    -6.2285     1.4186    21.4498 </r>
       <r>    -6.1228     1.4186    21.5997 </r>
       <r>    -6.0172     1.4186    21.7496 </r>
       <r>    -5.9115     2.1031    22.0000 </r>
       <r>    -5.8059     0.0000    22.0000 </r>
       <r>    -5.7002     0.0000    22.0000 </r>
       <r>    -5.5945     0.0000    22.0000 </r>
       <r>    -5.4889     0.0000    22.0000 </r>
       <r>    -5.3832     0.0000    22.0000 </r>
       <r>    -5.2775     0.0000    22.0000 </r>
       <r>    -5.1719     0.0000    22.0000 </r>
       <r>    -5.0662     0.0000    22.0000 </r>
       <r>    -4.9605     0.0000    22.0000 </r>
       <r>    -4.8549     0.0000    22.0000 </r>
       <r>    -4.7492     0.0000    22.0000 </r>
       <r>    -4.6435     0.0000    22.0000 </r>
       <r>    -4.5379     0.0000    22.0000 </r>
       <r>    -4.4322     0.0000    22.0000 </r>
       <r>    -4.3265     0.0000    22.0000 </r>
       <r>    -4.2209     2.3142    22.1043 </r>
       <r>    -4.1152     4.1799    22.4699 </r>
       <r>    -4.0095     4.1784    22.8926 </r>
       <r>    -3.9039     7.2983    23.4610 </r>
       <r>    -3.7982     2.2464    23.9999 </r>
       <r>    -3.6925     0.0000    24.0000 </r>
       <r>    -3.5869     0.0000    24.0000 </r>
       <r>    -3.4812     0.0000    24.0000 </r>
       <r>    -3.3755     0.0000    24.0000 </r>
       <r>    -3.2699    22.0134    24.7991 </r>
       <r>    -3.1642     9.8144    26.0000 </r>
       <r>    -3.0586     0.0000    26.0000 </r>
       <r>    -2.9529     0.0000    26.0000 </r>
       <r>    -2.8472     0.0000    26.0000 </r>
       <r>    -2.7416     0.4443    26.0157 </r>
       <r>    -2.6359     1.1172    26.0929 </r>
       <r>    -2.5302     1.9498    26.2562 </r>
       <r>    -2.4246     2.1574    26.4759 </r>
       <r>    -2.3189     1.7663    26.6910 </r>
       <r>    -2.2132     1.3391    26.8474 </r>
       <r>    -2.1076     1.2065    26.9788 </r>
       <r>    -2.0019     1.1448    27.1038 </r>
       <r>    -1.8962     1.0684    27.2203 </r>
       <r>    -1.7906     1.0364    27.3307 </r>
       <r>    -1.6849     1.1072    27.4416 </r>
       <r>    -1.5792     1.4506    27.5738 </r>
       <r>    -1.4736     1.6855    27.7454 </r>
       <r>    -1.3679     1.1226    27.8990 </r>
       <r>    -1.2622     0.3991    27.9775 </r>
       <r>    -1.1566     0.0508    27.9996 </r>
       <r>    -1.0509     3.0647    28.0037 </r>
       <r>    -0.9452     3.7236    28.3890 </r>
       <r>    -0.8396     1.9007    28.5899 </r>
       <r>    -0.7339     2.4522    28.7743 </r>
       <r>    -0.6282     4.9775    29.2352 </r>
       <r>    -0.5226     5.7416    29.8254 </r>
       <r>    -0.4169     0.4206    30.0000 </r>
       <r>    -0.3113     0.0000    30.0000 </r>
       <r>    -0.2056     0.0000    30.0000 </r>
       <r>    -0.0999     0.0000    30.0000 </r>
       <r>     0.0057     0.0000    30.0000 </r>
       <r>     0.1114     0.0000    30.0000 </r>
       <r>     0.2171     1.0659    30.0126 </r>
       <r>     0.3227     3.2653    30.2420 </r>
       <r>     0.4284     4.8528    30.7262 </r>
       <r>     0.5341     4.3048    31.1924 </r>
       <r>     0.6397     1.3430    31.4863 </r>
       <r>     0.7454     1.9811    31.6554 </r>
       <r>     0.8511     1.2742    31.8132 </r>
       <r>     0.9567     0.8676    31.9231 </r>
       <r>     1.0624     0.2630    32.0000 </r>
       <r>     1.1681     0.0000    32.0000 </r>
       <r>     1.2737     0.0000    32.0000 </r>
       <r>     1.3794     0.0000    32.0000 </r>
       <r>     1.4851     0.0000    32.0000 </r>
       <r>     1.5907     0.0000    32.0000 </r>
       <r>     1.6964     0.0000    32.0000 </r>
       <r>     1.8021     0.0000    32.0000 </r>
       <r>     1.9077     0.0000    32.0000 </r>
       <r>     2.0134     0.7381    32.0279 </r>
       <r>     2.1191     2.2229    32.1723 </r>
       <r>     2.2247     5.2744    32.4633 </r>
       <r>     2.3304     5.9729    33.1398 </r>
       <r>     2.4360     3.7507    33.6044 </r>
       <r>     2.5417     4.1996    34.0350 </r>
       <r>     2.6474     5.4895    34.4741 </r>
       <r>     2.7530     8.2825    35.2344 </r>
       <r>     2.8587     3.5548    35.7832 </r>
       <r>     2.9644     0.7795    35.9972 </r>
       <r>     3.0700     0.0000    36.0000 </r>
       <r>     3.1757     0.0000    36.0000 </r>
       <r>     3.2814     0.0000    36.0000 </r>
       <r>     3.3870     0.0000    36.0000 </r>
       <r>     3.4927     0.0000    36.0000 </r>
       <r>     3.5984     0.0000    36.0000 </r>
       <r>     3.7040     0.0000    36.0000 </r>
       <r>     3.8097     0.0000    36.0000 </r>
       <r>     3.9154     0.0000    36.0000 </r>
       <r>     4.0210     0.0000    36.0000 </r>
       <r>     4.1267     0.0000    36.0000 </r>
       <r>     4.2324     0.0000    36.0000 </r>
       <r>     4.3380     0.0000    36.0000 </r>
       <r>     4.4437     0.0000    36.0000 </r>
       <r>     4.5494     0.0000    36.0000 </r>
       <r>     4.6550     0.0000    36.0000 </r>
       <r>     4.7607     0.0000    36.0000 </r>
       <r>     4.8664     0.0000    36.0000 </r>
       <r>     4.9720     0.0000    36.0000 </r>
      </set>
     </set>
    </array>
   </total>
  </dos>
 </calculation>
 <structure name="finalpos" >
  <crystal>
   <varray name="basis" >
    <v>       3.77480684       0.51115597       0.51776073 </v>
    <v>       1.80928838       7.05896212       0.55595825 </v>
    <v>       2.51549780       2.64517283       6.08531613 </v>
   </varray>
   <i name="volume">    144.97055991 </i>
   <varray name="rec_basis" >
    <v>       0.28616438      -0.06630022      -0.08947281 </v>
    <v>      -0.01200919       0.14946805      -0.06000670 </v>
    <v>      -0.02325073      -0.00801443       0.17742492 </v>
   </varray>
  </crystal>
  <varray name="positions" >
   <v>       0.73599029       0.43214041       0.16945807 </v>
   <v>       0.20228577       0.44169342       0.36225855 </v>
   <v>       0.83636039       0.67779078       0.91266264 </v>
   <v>       0.88872969       0.44177047       0.36078562 </v>
   <v>       0.88873326       0.81455446       0.51705476 </v>
   <v>       0.86247960       0.74102146       0.71073636 </v>
  </varray>
 </structure>
</modeling>
