unknown system                          
            1
     3.814160    0.459759    0.525970
     1.746359    6.983281    0.540805
     2.549812    2.584651    5.924456
   Si   N 
     1     5
Direct configuration=     1
   0.74971587  0.41737237  0.16771358
   0.20165105  0.45682142  0.35591362
   0.81550360  0.67771011  0.92395395
   0.89020522  0.45997811  0.35554743
   0.89927282  0.80219381  0.51482552
   0.85823043  0.73489517  0.71500190
unknown system                          
            1
     3.819475    0.463124    0.526110
     1.754342    7.005958    0.525567
     2.550820    2.579605    5.965435
   Si   N 
     1     5
Direct configuration=     2
   0.74893574  0.41644045  0.16994782
   0.19709436  0.45576204  0.35708726
   0.81759342  0.67921681  0.92181433
   0.89339597  0.45810028  0.35638457
   0.89809450  0.80268156  0.51630616
   0.85946501  0.73676986  0.71141587
unknown system                          
            1
     3.815551    0.460640    0.526006
     1.748448    6.989217    0.536817
     2.550076    2.583330    5.935182
   Si   N 
     1     5
Direct configuration=     3
   0.74950410  0.41711991  0.16831290
   0.20044950  0.45653650  0.35623015
   0.81606014  0.67811503  0.92337847
   0.89103834  0.45947974  0.35577518
   0.89896057  0.80231907  0.51522020
   0.85856634  0.73540075  0.71403910
unknown system                          
            1
     3.823553    0.463407    0.527495
     1.756750    7.001674    0.530582
     2.555977    2.582082    5.962658
   Si   N 
     1     5
Direct configuration=     4
   0.74907455  0.41683614  0.16933023
   0.19956552  0.45585605  0.35696931
   0.81746003  0.67901902  0.92162231
   0.89109999  0.45832984  0.35628904
   0.89847010  0.80308595  0.51485237
   0.85890883  0.73584400  0.71389273
unknown system                          
            1
     3.823335    0.463332    0.527455
     1.756523    7.001334    0.530752
     2.555815    2.582116    5.961907
   Si   N 
     1     5
Direct configuration=     5
   0.74908622  0.41684383  0.16930257
   0.19958957  0.45587456  0.35694924
   0.81742194  0.67899447  0.92167003
   0.89109823  0.45836117  0.35627511
   0.89848353  0.80306505  0.51486235
   0.85889951  0.73583193  0.71389669
unknown system                          
            1
     3.830954    0.466390    0.527429
     1.764948    7.008956    0.528921
     2.560924    2.584196    5.974647
   Si   N 
     1     5
Direct configuration=     6
   0.74865112  0.41730867  0.16958073
   0.19995411  0.45520694  0.35756217
   0.81860793  0.67924074  0.92054715
   0.89022635  0.45728791  0.35667199
   0.89780358  0.80347823  0.51551886
   0.85933591  0.73644851  0.71307509
unknown system                          
            1
     3.829296    0.465724    0.527434
     1.763115    7.007297    0.529319
     2.559812    2.583743    5.971875
   Si   N 
     1     5
Direct configuration=     7
   0.74874583  0.41720757  0.16952030
   0.19987466  0.45535201  0.35742916
   0.81835044  0.67918744  0.92079087
   0.89041523  0.45752106  0.35658600
   0.89795145  0.80338829  0.51537629
   0.85924139  0.73631463  0.71325338
unknown system                          
            1
     3.830498    0.468653    0.527198
     1.768476    7.009370    0.531256
     2.560543    2.587245    5.980985
   Si   N 
     1     5
Direct configuration=     8
   0.74813669  0.41837279  0.16930406
   0.19943134  0.45458138  0.35801295
   0.81955618  0.67897503  0.91996058
   0.89060911  0.45632863  0.35694345
   0.89728450  0.80401015  0.51569452
   0.85956118  0.73670302  0.71304044
unknown system                          
            1
     3.834105    0.477439    0.526489
     1.784561    7.015590    0.537066
     2.562734    2.597750    6.008314
   Si   N 
     1     5
Direct configuration=     9
   0.74630486  0.42186874  0.16865551
   0.19810591  0.45227046  0.35976186
   0.82317136  0.67833621  0.91747419
   0.89119587  0.45275163  0.35801487
   0.89528258  0.80587635  0.51664709
   0.86051842  0.73786760  0.71240249
unknown system                          
            1
     3.831895    0.480766    0.528465
     1.788906    7.017504    0.542537
     2.563484    2.603176    6.026138
   Si   N 
     1     5
Direct configuration=    10
   0.74535464  0.42324586  0.16838239
   0.19814740  0.45139208  0.36020801
   0.82425586  0.67775263  0.91762509
   0.89132771  0.45156008  0.35828826
   0.89473674  0.80686607  0.51614998
   0.86075665  0.73815427  0.71230227
unknown system                          
            1
     3.831268    0.481708    0.529025
     1.790137    7.018046    0.544087
     2.563696    2.604714    6.031190
   Si   N 
     1     5
Direct configuration=    11
   0.74508467  0.42363629  0.16830499
   0.19815955  0.45114313  0.36033427
   0.82456372  0.67758709  0.91766775
   0.89136546  0.45122234  0.35836579
   0.89458146  0.80714664  0.51600935
   0.86082415  0.73823549  0.71227385
unknown system                          
            1
     3.825733    0.484828    0.529144
     1.792477    7.020457    0.547716
     2.560495    2.609739    6.039687
   Si   N 
     1     5
Direct configuration=    12
   0.74396703  0.42488996  0.16821084
   0.19857905  0.45023794  0.36062546
   0.82566361  0.67717350  0.91764866
   0.89134231  0.45013483  0.35854163
   0.89394823  0.80790326  0.51620578
   0.86107878  0.73863152  0.71172363
unknown system                          
            1
     3.822193    0.486822    0.529220
     1.793973    7.021998    0.550035
     2.558448    2.612952    6.045119
   Si   N 
     1     5
Direct configuration=    13
   0.74325101  0.42569170  0.16815038
   0.19884819  0.44965913  0.36081162
   0.82636801  0.67690876  0.91763653
   0.89132783  0.44943966  0.35865427
   0.89354287  0.80838708  0.51633093
   0.86124109  0.73888467  0.71137226
unknown system                          
            1
     3.817454    0.488787    0.528460
     1.794820    7.024056    0.551248
     2.554745    2.615844    6.047312
   Si   N 
     1     5
Direct configuration=    14
   0.74246770  0.42643570  0.16819160
   0.19922729  0.44904411  0.36095458
   0.82716578  0.67683070  0.91725298
   0.89125302  0.44875209  0.35874497
   0.89312984  0.80888991  0.51646977
   0.86133536  0.73901850  0.71134209
unknown system                          
            1
     3.803236    0.494683    0.526180
     1.797360    7.030229    0.554886
     2.543637    2.624522    6.053891
   Si   N 
     1     5
Direct configuration=    15
   0.74011468  0.42866808  0.16831473
   0.20036682  0.44719886  0.36138363
   0.82956079  0.67659605  0.91610300
   0.89102865  0.44668982  0.35901731
   0.89188963  0.81039840  0.51688578
   0.86161843  0.73941980  0.71125155
unknown system                          
            1
     3.774800    0.506475    0.521621
     1.802441    7.042575    0.562163
     2.521422    2.641876    6.067050
   Si   N 
     1     5
Direct configuration=    16
   0.73538991  0.43313510  0.16855767
   0.20265914  0.44350730  0.36224283
   0.83436106  0.67612376  0.91380700
   0.89058033  0.44256805  0.35956342
   0.88940239  0.81341541  0.51771475
   0.86218618  0.74022138  0.71107034
unknown system                          
            1
     3.785575    0.502007    0.523349
     1.800516    7.037897    0.559406
     2.529839    2.635300    6.062064
   Si   N 
     1     5
Direct configuration=    17
   0.73719457  0.43144073  0.16846812
   0.20178036  0.44490692  0.36191644
   0.83253428  0.67630500  0.91467398
   0.89074988  0.44412774  0.35935542
   0.89035009  0.81227219  0.51740296
   0.86196981  0.73991843  0.71113909
unknown system                          
            1
     3.781292    0.503694    0.522904
     1.801179    7.041112    0.559005
     2.526223    2.636732    6.069496
   Si   N 
     1     5
Direct configuration=    18
   0.73660724  0.43181909  0.16875799
   0.20190121  0.44425697  0.36201856
   0.83338828  0.67648998  0.91420076
   0.89062083  0.44352237  0.35952454
   0.89004031  0.81293939  0.51701076
   0.86202112  0.73994319  0.71144340
unknown system                          
            1
     3.781204    0.503729    0.522895
     1.801193    7.041178    0.558996
     2.526149    2.636761    6.069649
   Si   N 
     1     5
Direct configuration=    19
   0.73659518  0.43182686  0.16876394
   0.20190370  0.44424363  0.36202065
   0.83340582  0.67649377  0.91419105
   0.89061819  0.44350995  0.35952800
   0.89003393  0.81295309  0.51700272
   0.86202219  0.73994370  0.71144964
unknown system                          
            1
     3.778199    0.505173    0.522103
     1.802021    7.045179    0.557412
     2.522809    2.637486    6.076679
   Si   N 
     1     5
Direct configuration=    20
   0.73628031  0.43188563  0.16916275
   0.20190606  0.44364745  0.36208032
   0.83413855  0.67676406  0.91393288
   0.89035946  0.44305014  0.35974928
   0.88973657  0.81339609  0.51694103
   0.86215804  0.74022763  0.71108974
unknown system                          
            1
     3.774242    0.507076    0.521061
     1.803111    7.050448    0.555325
     2.518411    2.638442    6.085939
   Si   N 
     1     5
Direct configuration=    21
   0.73586612  0.43196324  0.16968730
   0.20190938  0.44286281  0.36215854
   0.83510384  0.67711940  0.91359351
   0.89001895  0.44244517  0.36004010
   0.88934440  0.81397922  0.51686005
   0.86233631  0.74060115  0.71061650
unknown system                          
            1
     3.774045    0.508658    0.519509
     1.805370    7.054145    0.554439
     2.516609    2.640316    6.086099
   Si   N 
     1     5
Direct configuration=    22
   0.73584034  0.43197997  0.16977819
   0.20223265  0.44235997  0.36220045
   0.83569173  0.67746056  0.91312549
   0.88932935  0.44213245  0.36031266
   0.88906217  0.81420326  0.51706945
   0.86242275  0.74083479  0.71046977
unknown system                          
            1
     3.773988    0.509118    0.519058
     1.806026    7.055219    0.554182
     2.516085    2.640860    6.086146
   Si   N 
     1     5
Direct configuration=    23
   0.73583287  0.43198483  0.16980459
   0.20232664  0.44221395  0.36221261
   0.83586237  0.67755958  0.91298961
   0.88912912  0.44204171  0.36039175
   0.88898019  0.81426831  0.51713027
   0.86244781  0.74090262  0.71042717
unknown system                          
            1
     3.774578    0.510588    0.518123
     1.808379    7.057919    0.555463
     2.515662    2.643970    6.085547
   Si   N 
     1     5
Direct configuration=    24
   0.73594643  0.43209701  0.16955470
   0.20229712  0.44183853  0.36224573
   0.83622158  0.67772632  0.91275381
   0.88884101  0.44184610  0.36067580
   0.88880213  0.81447467  0.51707583
   0.86247073  0.74098837  0.71065014
unknown system                          
            1
     3.774807    0.511156    0.517761
     1.809288    7.058962    0.555958
     2.515498    2.645173    6.085316
   Si   N 
     1     5
Direct configuration=    25
   0.73599029  0.43214041  0.16945807
   0.20228577  0.44169342  0.36225855
   0.83636039  0.67779078  0.91266264
   0.88872969  0.44177047  0.36078562
   0.88873326  0.81455446  0.51705476
   0.86247960  0.74102146  0.71073636
